+ 0.1 1 2 cbr 210 ------- 0 1.0 3.0 0 0
- 0.1 1 2 cbr 210 ------- 0 1.0 3.0 0 0
r 0.101168 1 2 cbr 210 ------- 0 1.0 3.0 0 0
+ 0.101168 2 3 cbr 210 ------- 0 1.0 3.0 0 0
- 0.101168 2 3 cbr 210 ------- 0 1.0 3.0 0 0
r 0.102336 2 3 cbr 210 ------- 0 1.0 3.0 0 0
+ 0.10375 1 2 cbr 210 ------- 0 1.0 3.0 1 1
- 0.10375 1 2 cbr 210 ------- 0 1.0 3.0 1 1
r 0.104918 1 2 cbr 210 ------- 0 1.0 3.0 1 1
+ 0.104918 2 3 cbr 210 ------- 0 1.0 3.0 1 1
- 0.104918 2 3 cbr 210 ------- 0 1.0 3.0 1 1
r 0.106086 2 3 cbr 210 ------- 0 1.0 3.0 1 1
+ 0.1075 1 2 cbr 210 ------- 0 1.0 3.0 2 2
- 0.1075 1 2 cbr 210 ------- 0 1.0 3.0 2 2
r 0.108668 1 2 cbr 210 ------- 0 1.0 3.0 2 2
+ 0.108668 2 3 cbr 210 ------- 0 1.0 3.0 2 2
- 0.108668 2 3 cbr 210 ------- 0 1.0 3.0 2 2
r 0.109836 2 3 cbr 210 ------- 0 1.0 3.0 2 2
+ 0.11125 1 2 cbr 210 ------- 0 1.0 3.0 3 3
- 0.11125 1 2 cbr 210 ------- 0 1.0 3.0 3 3
r 0.112418 1 2 cbr 210 ------- 0 1.0 3.0 3 3
+ 0.112418 2 3 cbr 210 ------- 0 1.0 3.0 3 3
- 0.112418 2 3 cbr 210 ------- 0 1.0 3.0 3 3
r 0.113586 2 3 cbr 210 ------- 0 1.0 3.0 3 3
+ 0.115 1 2 cbr 210 ------- 0 1.0 3.0 4 4
- 0.115 1 2 cbr 210 ------- 0 1.0 3.0 4 4
r 0.116168 1 2 cbr 210 ------- 0 1.0 3.0 4 4
+ 0.116168 2 3 cbr 210 ------- 0 1.0 3.0 4 4
- 0.116168 2 3 cbr 210 ------- 0 1.0 3.0 4 4
r 0.117336 2 3 cbr 210 ------- 0 1.0 3.0 4 4
+ 0.11875 1 2 cbr 210 ------- 0 1.0 3.0 5 5
- 0.11875 1 2 cbr 210 ------- 0 1.0 3.0 5 5
r 0.119918 1 2 cbr 210 ------- 0 1.0 3.0 5 5
+ 0.119918 2 3 cbr 210 ------- 0 1.0 3.0 5 5
- 0.119918 2 3 cbr 210 ------- 0 1.0 3.0 5 5
r 0.121086 2 3 cbr 210 ------- 0 1.0 3.0 5 5
+ 0.1225 1 2 cbr 210 ------- 0 1.0 3.0 6 6
- 0.1225 1 2 cbr 210 ------- 0 1.0 3.0 6 6
r 0.123668 1 2 cbr 210 ------- 0 1.0 3.0 6 6
+ 0.123668 2 3 cbr 210 ------- 0 1.0 3.0 6 6
- 0.123668 2 3 cbr 210 ------- 0 1.0 3.0 6 6
r 0.124836 2 3 cbr 210 ------- 0 1.0 3.0 6 6
+ 0.12625 1 2 cbr 210 ------- 0 1.0 3.0 7 7
- 0.12625 1 2 cbr 210 ------- 0 1.0 3.0 7 7
r 0.127418 1 2 cbr 210 ------- 0 1.0 3.0 7 7
+ 0.127418 2 3 cbr 210 ------- 0 1.0 3.0 7 7
- 0.127418 2 3 cbr 210 ------- 0 1.0 3.0 7 7
r 0.128586 2 3 cbr 210 ------- 0 1.0 3.0 7 7
+ 0.13 1 2 cbr 210 ------- 0 1.0 3.0 8 8
- 0.13 1 2 cbr 210 ------- 0 1.0 3.0 8 8
r 0.131168 1 2 cbr 210 ------- 0 1.0 3.0 8 8
+ 0.131168 2 3 cbr 210 ------- 0 1.0 3.0 8 8
- 0.131168 2 3 cbr 210 ------- 0 1.0 3.0 8 8
r 0.132336 2 3 cbr 210 ------- 0 1.0 3.0 8 8
+ 0.13375 1 2 cbr 210 ------- 0 1.0 3.0 9 9
- 0.13375 1 2 cbr 210 ------- 0 1.0 3.0 9 9
r 0.134918 1 2 cbr 210 ------- 0 1.0 3.0 9 9
+ 0.134918 2 3 cbr 210 ------- 0 1.0 3.0 9 9
- 0.134918 2 3 cbr 210 ------- 0 1.0 3.0 9 9
r 0.136086 2 3 cbr 210 ------- 0 1.0 3.0 9 9
+ 0.1375 1 2 cbr 210 ------- 0 1.0 3.0 10 10
- 0.1375 1 2 cbr 210 ------- 0 1.0 3.0 10 10
r 0.138668 1 2 cbr 210 ------- 0 1.0 3.0 10 10
+ 0.138668 2 3 cbr 210 ------- 0 1.0 3.0 10 10
- 0.138668 2 3 cbr 210 ------- 0 1.0 3.0 10 10
r 0.139836 2 3 cbr 210 ------- 0 1.0 3.0 10 10
+ 0.14125 1 2 cbr 210 ------- 0 1.0 3.0 11 11
- 0.14125 1 2 cbr 210 ------- 0 1.0 3.0 11 11
r 0.142418 1 2 cbr 210 ------- 0 1.0 3.0 11 11
+ 0.142418 2 3 cbr 210 ------- 0 1.0 3.0 11 11
- 0.142418 2 3 cbr 210 ------- 0 1.0 3.0 11 11
r 0.143586 2 3 cbr 210 ------- 0 1.0 3.0 11 11
+ 0.145 1 2 cbr 210 ------- 0 1.0 3.0 12 12
- 0.145 1 2 cbr 210 ------- 0 1.0 3.0 12 12
r 0.146168 1 2 cbr 210 ------- 0 1.0 3.0 12 12
+ 0.146168 2 3 cbr 210 ------- 0 1.0 3.0 12 12
- 0.146168 2 3 cbr 210 ------- 0 1.0 3.0 12 12
r 0.147336 2 3 cbr 210 ------- 0 1.0 3.0 12 12
+ 0.14875 1 2 cbr 210 ------- 0 1.0 3.0 13 13
- 0.14875 1 2 cbr 210 ------- 0 1.0 3.0 13 13
r 0.149918 1 2 cbr 210 ------- 0 1.0 3.0 13 13
+ 0.149918 2 3 cbr 210 ------- 0 1.0 3.0 13 13
- 0.149918 2 3 cbr 210 ------- 0 1.0 3.0 13 13
r 0.151086 2 3 cbr 210 ------- 0 1.0 3.0 13 13
+ 0.1525 1 2 cbr 210 ------- 0 1.0 3.0 14 14
- 0.1525 1 2 cbr 210 ------- 0 1.0 3.0 14 14
r 0.153668 1 2 cbr 210 ------- 0 1.0 3.0 14 14
+ 0.153668 2 3 cbr 210 ------- 0 1.0 3.0 14 14
- 0.153668 2 3 cbr 210 ------- 0 1.0 3.0 14 14
r 0.154836 2 3 cbr 210 ------- 0 1.0 3.0 14 14
+ 0.15625 1 2 cbr 210 ------- 0 1.0 3.0 15 15
- 0.15625 1 2 cbr 210 ------- 0 1.0 3.0 15 15
r 0.157418 1 2 cbr 210 ------- 0 1.0 3.0 15 15
+ 0.157418 2 3 cbr 210 ------- 0 1.0 3.0 15 15
- 0.157418 2 3 cbr 210 ------- 0 1.0 3.0 15 15
r 0.158586 2 3 cbr 210 ------- 0 1.0 3.0 15 15
+ 0.16 1 2 cbr 210 ------- 0 1.0 3.0 16 16
- 0.16 1 2 cbr 210 ------- 0 1.0 3.0 16 16
r 0.161168 1 2 cbr 210 ------- 0 1.0 3.0 16 16
+ 0.161168 2 3 cbr 210 ------- 0 1.0 3.0 16 16
- 0.161168 2 3 cbr 210 ------- 0 1.0 3.0 16 16
r 0.162336 2 3 cbr 210 ------- 0 1.0 3.0 16 16
+ 0.16375 1 2 cbr 210 ------- 0 1.0 3.0 17 17
- 0.16375 1 2 cbr 210 ------- 0 1.0 3.0 17 17
r 0.164918 1 2 cbr 210 ------- 0 1.0 3.0 17 17
+ 0.164918 2 3 cbr 210 ------- 0 1.0 3.0 17 17
- 0.164918 2 3 cbr 210 ------- 0 1.0 3.0 17 17
r 0.166086 2 3 cbr 210 ------- 0 1.0 3.0 17 17
+ 0.1675 1 2 cbr 210 ------- 0 1.0 3.0 18 18
- 0.1675 1 2 cbr 210 ------- 0 1.0 3.0 18 18
r 0.168668 1 2 cbr 210 ------- 0 1.0 3.0 18 18
+ 0.168668 2 3 cbr 210 ------- 0 1.0 3.0 18 18
- 0.168668 2 3 cbr 210 ------- 0 1.0 3.0 18 18
r 0.169836 2 3 cbr 210 ------- 0 1.0 3.0 18 18
+ 0.17125 1 2 cbr 210 ------- 0 1.0 3.0 19 19
- 0.17125 1 2 cbr 210 ------- 0 1.0 3.0 19 19
r 0.172418 1 2 cbr 210 ------- 0 1.0 3.0 19 19
+ 0.172418 2 3 cbr 210 ------- 0 1.0 3.0 19 19
- 0.172418 2 3 cbr 210 ------- 0 1.0 3.0 19 19
r 0.173586 2 3 cbr 210 ------- 0 1.0 3.0 19 19
+ 0.175 1 2 cbr 210 ------- 0 1.0 3.0 20 20
- 0.175 1 2 cbr 210 ------- 0 1.0 3.0 20 20
r 0.176168 1 2 cbr 210 ------- 0 1.0 3.0 20 20
+ 0.176168 2 3 cbr 210 ------- 0 1.0 3.0 20 20
- 0.176168 2 3 cbr 210 ------- 0 1.0 3.0 20 20
r 0.177336 2 3 cbr 210 ------- 0 1.0 3.0 20 20
+ 0.17875 1 2 cbr 210 ------- 0 1.0 3.0 21 21
- 0.17875 1 2 cbr 210 ------- 0 1.0 3.0 21 21
r 0.179918 1 2 cbr 210 ------- 0 1.0 3.0 21 21
+ 0.179918 2 3 cbr 210 ------- 0 1.0 3.0 21 21
- 0.179918 2 3 cbr 210 ------- 0 1.0 3.0 21 21
r 0.181086 2 3 cbr 210 ------- 0 1.0 3.0 21 21
+ 0.1825 1 2 cbr 210 ------- 0 1.0 3.0 22 22
- 0.1825 1 2 cbr 210 ------- 0 1.0 3.0 22 22
r 0.183668 1 2 cbr 210 ------- 0 1.0 3.0 22 22
+ 0.183668 2 3 cbr 210 ------- 0 1.0 3.0 22 22
- 0.183668 2 3 cbr 210 ------- 0 1.0 3.0 22 22
r 0.184836 2 3 cbr 210 ------- 0 1.0 3.0 22 22
+ 0.18625 1 2 cbr 210 ------- 0 1.0 3.0 23 23
- 0.18625 1 2 cbr 210 ------- 0 1.0 3.0 23 23
r 0.187418 1 2 cbr 210 ------- 0 1.0 3.0 23 23
+ 0.187418 2 3 cbr 210 ------- 0 1.0 3.0 23 23
- 0.187418 2 3 cbr 210 ------- 0 1.0 3.0 23 23
r 0.188586 2 3 cbr 210 ------- 0 1.0 3.0 23 23
+ 0.19 1 2 cbr 210 ------- 0 1.0 3.0 24 24
- 0.19 1 2 cbr 210 ------- 0 1.0 3.0 24 24
r 0.191168 1 2 cbr 210 ------- 0 1.0 3.0 24 24
+ 0.191168 2 3 cbr 210 ------- 0 1.0 3.0 24 24
- 0.191168 2 3 cbr 210 ------- 0 1.0 3.0 24 24
r 0.192336 2 3 cbr 210 ------- 0 1.0 3.0 24 24
+ 0.19375 1 2 cbr 210 ------- 0 1.0 3.0 25 25
- 0.19375 1 2 cbr 210 ------- 0 1.0 3.0 25 25
r 0.194918 1 2 cbr 210 ------- 0 1.0 3.0 25 25
+ 0.194918 2 3 cbr 210 ------- 0 1.0 3.0 25 25
- 0.194918 2 3 cbr 210 ------- 0 1.0 3.0 25 25
r 0.196086 2 3 cbr 210 ------- 0 1.0 3.0 25 25
+ 0.1975 1 2 cbr 210 ------- 0 1.0 3.0 26 26
- 0.1975 1 2 cbr 210 ------- 0 1.0 3.0 26 26
r 0.198668 1 2 cbr 210 ------- 0 1.0 3.0 26 26
+ 0.198668 2 3 cbr 210 ------- 0 1.0 3.0 26 26
- 0.198668 2 3 cbr 210 ------- 0 1.0 3.0 26 26
r 0.199836 2 3 cbr 210 ------- 0 1.0 3.0 26 26
+ 0.2 0 2 tcp 40 ------- 0 0.0 3.1 0 27
- 0.2 0 2 tcp 40 ------- 0 0.0 3.1 0 27
r 0.201032 0 2 tcp 40 ------- 0 0.0 3.1 0 27
+ 0.201032 2 3 tcp 40 ------- 0 0.0 3.1 0 27
- 0.201032 2 3 tcp 40 ------- 0 0.0 3.1 0 27
+ 0.20125 1 2 cbr 210 ------- 0 1.0 3.0 27 28
- 0.20125 1 2 cbr 210 ------- 0 1.0 3.0 27 28
r 0.202064 2 3 tcp 40 ------- 0 0.0 3.1 0 27
+ 0.202064 3 2 ack 40 ------- 0 3.1 0.0 0 29
- 0.202064 3 2 ack 40 ------- 0 3.1 0.0 0 29
r 0.202418 1 2 cbr 210 ------- 0 1.0 3.0 27 28
+ 0.202418 2 3 cbr 210 ------- 0 1.0 3.0 27 28
- 0.202418 2 3 cbr 210 ------- 0 1.0 3.0 27 28
r 0.203096 3 2 ack 40 ------- 0 3.1 0.0 0 29
+ 0.203096 2 0 ack 40 ------- 0 3.1 0.0 0 29
- 0.203096 2 0 ack 40 ------- 0 3.1 0.0 0 29
r 0.203586 2 3 cbr 210 ------- 0 1.0 3.0 27 28
r 0.204128 2 0 ack 40 ------- 0 3.1 0.0 0 29
+ 0.204128 0 2 tcp 1040 ------- 0 0.0 3.1 1 30
- 0.204128 0 2 tcp 1040 ------- 0 0.0 3.1 1 30
+ 0.204128 0 2 tcp 1040 ------- 0 0.0 3.1 2 31
- 0.20496 0 2 tcp 1040 ------- 0 0.0 3.1 2 31
+ 0.205 1 2 cbr 210 ------- 0 1.0 3.0 28 32
- 0.205 1 2 cbr 210 ------- 0 1.0 3.0 28 32
r 0.20596 0 2 tcp 1040 ------- 0 0.0 3.1 1 30
+ 0.20596 2 3 tcp 1040 ------- 0 0.0 3.1 1 30
- 0.20596 2 3 tcp 1040 ------- 0 0.0 3.1 1 30
r 0.206168 1 2 cbr 210 ------- 0 1.0 3.0 28 32
+ 0.206168 2 3 cbr 210 ------- 0 1.0 3.0 28 32
r 0.206792 0 2 tcp 1040 ------- 0 0.0 3.1 2 31
+ 0.206792 2 3 tcp 1040 ------- 0 0.0 3.1 2 31
- 0.206792 2 3 cbr 210 ------- 0 1.0 3.0 28 32
- 0.20696 2 3 tcp 1040 ------- 0 0.0 3.1 2 31
r 0.207792 2 3 tcp 1040 ------- 0 0.0 3.1 1 30
+ 0.207792 3 2 ack 40 ------- 0 3.1 0.0 1 33
- 0.207792 3 2 ack 40 ------- 0 3.1 0.0 1 33
r 0.20796 2 3 cbr 210 ------- 0 1.0 3.0 28 32
+ 0.20875 1 2 cbr 210 ------- 0 1.0 3.0 29 34
- 0.20875 1 2 cbr 210 ------- 0 1.0 3.0 29 34
r 0.208792 2 3 tcp 1040 ------- 0 0.0 3.1 2 31
+ 0.208792 3 2 ack 40 ------- 0 3.1 0.0 2 35
- 0.208792 3 2 ack 40 ------- 0 3.1 0.0 2 35
r 0.208824 3 2 ack 40 ------- 0 3.1 0.0 1 33
+ 0.208824 2 0 ack 40 ------- 0 3.1 0.0 1 33
- 0.208824 2 0 ack 40 ------- 0 3.1 0.0 1 33
r 0.209824 3 2 ack 40 ------- 0 3.1 0.0 2 35
+ 0.209824 2 0 ack 40 ------- 0 3.1 0.0 2 35
- 0.209824 2 0 ack 40 ------- 0 3.1 0.0 2 35
r 0.209856 2 0 ack 40 ------- 0 3.1 0.0 1 33
+ 0.209856 0 2 tcp 1040 ------- 0 0.0 3.1 3 36
- 0.209856 0 2 tcp 1040 ------- 0 0.0 3.1 3 36
+ 0.209856 0 2 tcp 1040 ------- 0 0.0 3.1 4 37
r 0.209918 1 2 cbr 210 ------- 0 1.0 3.0 29 34
+ 0.209918 2 3 cbr 210 ------- 0 1.0 3.0 29 34
- 0.209918 2 3 cbr 210 ------- 0 1.0 3.0 29 34
- 0.210688 0 2 tcp 1040 ------- 0 0.0 3.1 4 37
r 0.210856 2 0 ack 40 ------- 0 3.1 0.0 2 35
+ 0.210856 0 2 tcp 1040 ------- 0 0.0 3.1 5 38
+ 0.210856 0 2 tcp 1040 ------- 0 0.0 3.1 6 39
r 0.211086 2 3 cbr 210 ------- 0 1.0 3.0 29 34
- 0.21152 0 2 tcp 1040 ------- 0 0.0 3.1 5 38
r 0.211688 0 2 tcp 1040 ------- 0 0.0 3.1 3 36
+ 0.211688 2 3 tcp 1040 ------- 0 0.0 3.1 3 36
- 0.211688 2 3 tcp 1040 ------- 0 0.0 3.1 3 36
- 0.212352 0 2 tcp 1040 ------- 0 0.0 3.1 6 39
+ 0.2125 1 2 cbr 210 ------- 0 1.0 3.0 30 40
- 0.2125 1 2 cbr 210 ------- 0 1.0 3.0 30 40
r 0.21252 0 2 tcp 1040 ------- 0 0.0 3.1 4 37
+ 0.21252 2 3 tcp 1040 ------- 0 0.0 3.1 4 37
- 0.21252 2 3 tcp 1040 ------- 0 0.0 3.1 4 37
r 0.213352 0 2 tcp 1040 ------- 0 0.0 3.1 5 38
+ 0.213352 2 3 tcp 1040 ------- 0 0.0 3.1 5 38
- 0.213352 2 3 tcp 1040 ------- 0 0.0 3.1 5 38
r 0.21352 2 3 tcp 1040 ------- 0 0.0 3.1 3 36
+ 0.21352 3 2 ack 40 ------- 0 3.1 0.0 3 41
- 0.21352 3 2 ack 40 ------- 0 3.1 0.0 3 41
r 0.213668 1 2 cbr 210 ------- 0 1.0 3.0 30 40
+ 0.213668 2 3 cbr 210 ------- 0 1.0 3.0 30 40
r 0.214184 0 2 tcp 1040 ------- 0 0.0 3.1 6 39
+ 0.214184 2 3 tcp 1040 ------- 0 0.0 3.1 6 39
- 0.214184 2 3 cbr 210 ------- 0 1.0 3.0 30 40
r 0.214352 2 3 tcp 1040 ------- 0 0.0 3.1 4 37
+ 0.214352 3 2 ack 40 ------- 0 3.1 0.0 4 42
- 0.214352 3 2 ack 40 ------- 0 3.1 0.0 4 42
- 0.214352 2 3 tcp 1040 ------- 0 0.0 3.1 6 39
r 0.214552 3 2 ack 40 ------- 0 3.1 0.0 3 41
+ 0.214552 2 0 ack 40 ------- 0 3.1 0.0 3 41
- 0.214552 2 0 ack 40 ------- 0 3.1 0.0 3 41
r 0.215184 2 3 tcp 1040 ------- 0 0.0 3.1 5 38
+ 0.215184 3 2 ack 40 ------- 0 3.1 0.0 5 43
- 0.215184 3 2 ack 40 ------- 0 3.1 0.0 5 43
r 0.215352 2 3 cbr 210 ------- 0 1.0 3.0 30 40
r 0.215384 3 2 ack 40 ------- 0 3.1 0.0 4 42
+ 0.215384 2 0 ack 40 ------- 0 3.1 0.0 4 42
- 0.215384 2 0 ack 40 ------- 0 3.1 0.0 4 42
r 0.215584 2 0 ack 40 ------- 0 3.1 0.0 3 41
+ 0.215584 0 2 tcp 1040 ------- 0 0.0 3.1 7 44
- 0.215584 0 2 tcp 1040 ------- 0 0.0 3.1 7 44
+ 0.215584 0 2 tcp 1040 ------- 0 0.0 3.1 8 45
r 0.216184 2 3 tcp 1040 ------- 0 0.0 3.1 6 39
+ 0.216184 3 2 ack 40 ------- 0 3.1 0.0 6 46
- 0.216184 3 2 ack 40 ------- 0 3.1 0.0 6 46
r 0.216216 3 2 ack 40 ------- 0 3.1 0.0 5 43
+ 0.216216 2 0 ack 40 ------- 0 3.1 0.0 5 43
- 0.216216 2 0 ack 40 ------- 0 3.1 0.0 5 43
+ 0.21625 1 2 cbr 210 ------- 0 1.0 3.0 31 47
- 0.21625 1 2 cbr 210 ------- 0 1.0 3.0 31 47
r 0.216416 2 0 ack 40 ------- 0 3.1 0.0 4 42
+ 0.216416 0 2 tcp 1040 ------- 0 0.0 3.1 9 48
+ 0.216416 0 2 tcp 1040 ------- 0 0.0 3.1 10 49
- 0.216416 0 2 tcp 1040 ------- 0 0.0 3.1 8 45
r 0.217216 3 2 ack 40 ------- 0 3.1 0.0 6 46
+ 0.217216 2 0 ack 40 ------- 0 3.1 0.0 6 46
- 0.217216 2 0 ack 40 ------- 0 3.1 0.0 6 46
r 0.217248 2 0 ack 40 ------- 0 3.1 0.0 5 43
+ 0.217248 0 2 tcp 1040 ------- 0 0.0 3.1 11 50
+ 0.217248 0 2 tcp 1040 ------- 0 0.0 3.1 12 51
- 0.217248 0 2 tcp 1040 ------- 0 0.0 3.1 9 48
r 0.217416 0 2 tcp 1040 ------- 0 0.0 3.1 7 44
+ 0.217416 2 3 tcp 1040 ------- 0 0.0 3.1 7 44
- 0.217416 2 3 tcp 1040 ------- 0 0.0 3.1 7 44
r 0.217418 1 2 cbr 210 ------- 0 1.0 3.0 31 47
+ 0.217418 2 3 cbr 210 ------- 0 1.0 3.0 31 47
- 0.21808 0 2 tcp 1040 ------- 0 0.0 3.1 10 49
r 0.218248 0 2 tcp 1040 ------- 0 0.0 3.1 8 45
+ 0.218248 2 3 tcp 1040 ------- 0 0.0 3.1 8 45
r 0.218248 2 0 ack 40 ------- 0 3.1 0.0 6 46
+ 0.218248 0 2 tcp 1040 ------- 0 0.0 3.1 13 52
+ 0.218248 0 2 tcp 1040 ------- 0 0.0 3.1 14 53
- 0.218248 2 3 cbr 210 ------- 0 1.0 3.0 31 47
- 0.218416 2 3 tcp 1040 ------- 0 0.0 3.1 8 45
- 0.218912 0 2 tcp 1040 ------- 0 0.0 3.1 11 50
r 0.21908 0 2 tcp 1040 ------- 0 0.0 3.1 9 48
+ 0.21908 2 3 tcp 1040 ------- 0 0.0 3.1 9 48
r 0.219248 2 3 tcp 1040 ------- 0 0.0 3.1 7 44
+ 0.219248 3 2 ack 40 ------- 0 3.1 0.0 7 54
- 0.219248 3 2 ack 40 ------- 0 3.1 0.0 7 54
- 0.219248 2 3 tcp 1040 ------- 0 0.0 3.1 9 48
r 0.219416 2 3 cbr 210 ------- 0 1.0 3.0 31 47
- 0.219744 0 2 tcp 1040 ------- 0 0.0 3.1 12 51
r 0.219912 0 2 tcp 1040 ------- 0 0.0 3.1 10 49
+ 0.219912 2 3 tcp 1040 ------- 0 0.0 3.1 10 49
+ 0.22 1 2 cbr 210 ------- 0 1.0 3.0 32 55
- 0.22 1 2 cbr 210 ------- 0 1.0 3.0 32 55
- 0.22008 2 3 tcp 1040 ------- 0 0.0 3.1 10 49
r 0.220248 2 3 tcp 1040 ------- 0 0.0 3.1 8 45
+ 0.220248 3 2 ack 40 ------- 0 3.1 0.0 8 56
- 0.220248 3 2 ack 40 ------- 0 3.1 0.0 8 56
r 0.22028 3 2 ack 40 ------- 0 3.1 0.0 7 54
+ 0.22028 2 0 ack 40 ------- 0 3.1 0.0 7 54
- 0.22028 2 0 ack 40 ------- 0 3.1 0.0 7 54
- 0.220576 0 2 tcp 1040 ------- 0 0.0 3.1 13 52
r 0.220744 0 2 tcp 1040 ------- 0 0.0 3.1 11 50
+ 0.220744 2 3 tcp 1040 ------- 0 0.0 3.1 11 50
- 0.220912 2 3 tcp 1040 ------- 0 0.0 3.1 11 50
r 0.22108 2 3 tcp 1040 ------- 0 0.0 3.1 9 48
+ 0.22108 3 2 ack 40 ------- 0 3.1 0.0 9 57
- 0.22108 3 2 ack 40 ------- 0 3.1 0.0 9 57
r 0.221168 1 2 cbr 210 ------- 0 1.0 3.0 32 55
+ 0.221168 2 3 cbr 210 ------- 0 1.0 3.0 32 55
r 0.22128 3 2 ack 40 ------- 0 3.1 0.0 8 56
+ 0.22128 2 0 ack 40 ------- 0 3.1 0.0 8 56
- 0.22128 2 0 ack 40 ------- 0 3.1 0.0 8 56
r 0.221312 2 0 ack 40 ------- 0 3.1 0.0 7 54
+ 0.221312 0 2 tcp 1040 ------- 0 0.0 3.1 15 58
+ 0.221312 0 2 tcp 1040 ------- 0 0.0 3.1 16 59
- 0.221408 0 2 tcp 1040 ------- 0 0.0 3.1 14 53
r 0.221576 0 2 tcp 1040 ------- 0 0.0 3.1 12 51
+ 0.221576 2 3 tcp 1040 ------- 0 0.0 3.1 12 51
- 0.221744 2 3 cbr 210 ------- 0 1.0 3.0 32 55
r 0.221912 2 3 tcp 1040 ------- 0 0.0 3.1 10 49
+ 0.221912 3 2 ack 40 ------- 0 3.1 0.0 10 60
- 0.221912 3 2 ack 40 ------- 0 3.1 0.0 10 60
- 0.221912 2 3 tcp 1040 ------- 0 0.0 3.1 12 51
r 0.222112 3 2 ack 40 ------- 0 3.1 0.0 9 57
+ 0.222112 2 0 ack 40 ------- 0 3.1 0.0 9 57
- 0.222112 2 0 ack 40 ------- 0 3.1 0.0 9 57
- 0.22224 0 2 tcp 1040 ------- 0 0.0 3.1 15 58
r 0.222312 2 0 ack 40 ------- 0 3.1 0.0 8 56
+ 0.222312 0 2 tcp 1040 ------- 0 0.0 3.1 17 61
+ 0.222312 0 2 tcp 1040 ------- 0 0.0 3.1 18 62
r 0.222408 0 2 tcp 1040 ------- 0 0.0 3.1 13 52
+ 0.222408 2 3 tcp 1040 ------- 0 0.0 3.1 13 52
r 0.222744 2 3 tcp 1040 ------- 0 0.0 3.1 11 50
+ 0.222744 3 2 ack 40 ------- 0 3.1 0.0 11 63
- 0.222744 3 2 ack 40 ------- 0 3.1 0.0 11 63
- 0.222744 2 3 tcp 1040 ------- 0 0.0 3.1 13 52
r 0.222912 2 3 cbr 210 ------- 0 1.0 3.0 32 55
r 0.222944 3 2 ack 40 ------- 0 3.1 0.0 10 60
+ 0.222944 2 0 ack 40 ------- 0 3.1 0.0 10 60
- 0.222944 2 0 ack 40 ------- 0 3.1 0.0 10 60
- 0.223072 0 2 tcp 1040 ------- 0 0.0 3.1 16 59
r 0.223144 2 0 ack 40 ------- 0 3.1 0.0 9 57
+ 0.223144 0 2 tcp 1040 ------- 0 0.0 3.1 19 64
+ 0.223144 0 2 tcp 1040 ------- 0 0.0 3.1 20 65
r 0.22324 0 2 tcp 1040 ------- 0 0.0 3.1 14 53
+ 0.22324 2 3 tcp 1040 ------- 0 0.0 3.1 14 53
- 0.223576 2 3 tcp 1040 ------- 0 0.0 3.1 14 53
r 0.223744 2 3 tcp 1040 ------- 0 0.0 3.1 12 51
+ 0.223744 3 2 ack 40 ------- 0 3.1 0.0 12 66
- 0.223744 3 2 ack 40 ------- 0 3.1 0.0 12 66
+ 0.22375 1 2 cbr 210 ------- 0 1.0 3.0 33 67
- 0.22375 1 2 cbr 210 ------- 0 1.0 3.0 33 67
r 0.223776 3 2 ack 40 ------- 0 3.1 0.0 11 63
+ 0.223776 2 0 ack 40 ------- 0 3.1 0.0 11 63
- 0.223776 2 0 ack 40 ------- 0 3.1 0.0 11 63
- 0.223904 0 2 tcp 1040 ------- 0 0.0 3.1 17 61
r 0.223976 2 0 ack 40 ------- 0 3.1 0.0 10 60
+ 0.223976 0 2 tcp 1040 ------- 0 0.0 3.1 21 68
+ 0.223976 0 2 tcp 1040 ------- 0 0.0 3.1 22 69
r 0.224072 0 2 tcp 1040 ------- 0 0.0 3.1 15 58
+ 0.224072 2 3 tcp 1040 ------- 0 0.0 3.1 15 58
- 0.224408 2 3 tcp 1040 ------- 0 0.0 3.1 15 58
r 0.224576 2 3 tcp 1040 ------- 0 0.0 3.1 13 52
+ 0.224576 3 2 ack 40 ------- 0 3.1 0.0 13 70
- 0.224576 3 2 ack 40 ------- 0 3.1 0.0 13 70
- 0.224736 0 2 tcp 1040 ------- 0 0.0 3.1 18 62
r 0.224776 3 2 ack 40 ------- 0 3.1 0.0 12 66
+ 0.224776 2 0 ack 40 ------- 0 3.1 0.0 12 66
- 0.224776 2 0 ack 40 ------- 0 3.1 0.0 12 66
r 0.224808 2 0 ack 40 ------- 0 3.1 0.0 11 63
+ 0.224808 0 2 tcp 1040 ------- 0 0.0 3.1 23 71
+ 0.224808 0 2 tcp 1040 ------- 0 0.0 3.1 24 72
r 0.224904 0 2 tcp 1040 ------- 0 0.0 3.1 16 59
+ 0.224904 2 3 tcp 1040 ------- 0 0.0 3.1 16 59
r 0.224918 1 2 cbr 210 ------- 0 1.0 3.0 33 67
+ 0.224918 2 3 cbr 210 ------- 0 1.0 3.0 33 67
- 0.22524 2 3 tcp 1040 ------- 0 0.0 3.1 16 59
r 0.225408 2 3 tcp 1040 ------- 0 0.0 3.1 14 53
+ 0.225408 3 2 ack 40 ------- 0 3.1 0.0 14 73
- 0.225408 3 2 ack 40 ------- 0 3.1 0.0 14 73
- 0.225568 0 2 tcp 1040 ------- 0 0.0 3.1 19 64
r 0.225608 3 2 ack 40 ------- 0 3.1 0.0 13 70
+ 0.225608 2 0 ack 40 ------- 0 3.1 0.0 13 70
- 0.225608 2 0 ack 40 ------- 0 3.1 0.0 13 70
r 0.225736 0 2 tcp 1040 ------- 0 0.0 3.1 17 61
+ 0.225736 2 3 tcp 1040 ------- 0 0.0 3.1 17 61
r 0.225808 2 0 ack 40 ------- 0 3.1 0.0 12 66
+ 0.225808 0 2 tcp 1040 ------- 0 0.0 3.1 25 74
+ 0.225808 0 2 tcp 1040 ------- 0 0.0 3.1 26 75
- 0.226072 2 3 cbr 210 ------- 0 1.0 3.0 33 67
r 0.22624 2 3 tcp 1040 ------- 0 0.0 3.1 15 58
+ 0.22624 3 2 ack 40 ------- 0 3.1 0.0 15 76
- 0.22624 3 2 ack 40 ------- 0 3.1 0.0 15 76
- 0.22624 2 3 tcp 1040 ------- 0 0.0 3.1 17 61
- 0.2264 0 2 tcp 1040 ------- 0 0.0 3.1 20 65
r 0.22644 3 2 ack 40 ------- 0 3.1 0.0 14 73
+ 0.22644 2 0 ack 40 ------- 0 3.1 0.0 14 73
- 0.22644 2 0 ack 40 ------- 0 3.1 0.0 14 73
r 0.226568 0 2 tcp 1040 ------- 0 0.0 3.1 18 62
+ 0.226568 2 3 tcp 1040 ------- 0 0.0 3.1 18 62
r 0.22664 2 0 ack 40 ------- 0 3.1 0.0 13 70
+ 0.22664 0 2 tcp 1040 ------- 0 0.0 3.1 27 77
+ 0.22664 0 2 tcp 1040 ------- 0 0.0 3.1 28 78
r 0.227072 2 3 tcp 1040 ------- 0 0.0 3.1 16 59
+ 0.227072 3 2 ack 40 ------- 0 3.1 0.0 16 79
- 0.227072 3 2 ack 40 ------- 0 3.1 0.0 16 79
- 0.227072 2 3 tcp 1040 ------- 0 0.0 3.1 18 62
- 0.227232 0 2 tcp 1040 ------- 0 0.0 3.1 21 68
r 0.22724 2 3 cbr 210 ------- 0 1.0 3.0 33 67
r 0.227272 3 2 ack 40 ------- 0 3.1 0.0 15 76
+ 0.227272 2 0 ack 40 ------- 0 3.1 0.0 15 76
- 0.227272 2 0 ack 40 ------- 0 3.1 0.0 15 76
r 0.2274 0 2 tcp 1040 ------- 0 0.0 3.1 19 64
+ 0.2274 2 3 tcp 1040 ------- 0 0.0 3.1 19 64
r 0.227472 2 0 ack 40 ------- 0 3.1 0.0 14 73
+ 0.227472 0 2 tcp 1040 ------- 0 0.0 3.1 29 80
+ 0.227472 0 2 tcp 1040 ------- 0 0.0 3.1 30 81
+ 0.2275 1 2 cbr 210 ------- 0 1.0 3.0 34 82
- 0.2275 1 2 cbr 210 ------- 0 1.0 3.0 34 82
- 0.227904 2 3 tcp 1040 ------- 0 0.0 3.1 19 64
- 0.228064 0 2 tcp 1040 ------- 0 0.0 3.1 22 69
r 0.228072 2 3 tcp 1040 ------- 0 0.0 3.1 17 61
+ 0.228072 3 2 ack 40 ------- 0 3.1 0.0 17 83
- 0.228072 3 2 ack 40 ------- 0 3.1 0.0 17 83
r 0.228104 3 2 ack 40 ------- 0 3.1 0.0 16 79
+ 0.228104 2 0 ack 40 ------- 0 3.1 0.0 16 79
- 0.228104 2 0 ack 40 ------- 0 3.1 0.0 16 79
r 0.228232 0 2 tcp 1040 ------- 0 0.0 3.1 20 65
+ 0.228232 2 3 tcp 1040 ------- 0 0.0 3.1 20 65
r 0.228304 2 0 ack 40 ------- 0 3.1 0.0 15 76
+ 0.228304 0 2 tcp 1040 ------- 0 0.0 3.1 31 84
+ 0.228304 0 2 tcp 1040 ------- 0 0.0 3.1 32 85
r 0.228668 1 2 cbr 210 ------- 0 1.0 3.0 34 82
+ 0.228668 2 3 cbr 210 ------- 0 1.0 3.0 34 82
- 0.228736 2 3 tcp 1040 ------- 0 0.0 3.1 20 65
- 0.228896 0 2 tcp 1040 ------- 0 0.0 3.1 23 71
r 0.228904 2 3 tcp 1040 ------- 0 0.0 3.1 18 62
+ 0.228904 3 2 ack 40 ------- 0 3.1 0.0 18 86
- 0.228904 3 2 ack 40 ------- 0 3.1 0.0 18 86
r 0.229064 0 2 tcp 1040 ------- 0 0.0 3.1 21 68
+ 0.229064 2 3 tcp 1040 ------- 0 0.0 3.1 21 68
r 0.229104 3 2 ack 40 ------- 0 3.1 0.0 17 83
+ 0.229104 2 0 ack 40 ------- 0 3.1 0.0 17 83
- 0.229104 2 0 ack 40 ------- 0 3.1 0.0 17 83
r 0.229136 2 0 ack 40 ------- 0 3.1 0.0 16 79
+ 0.229136 0 2 tcp 1040 ------- 0 0.0 3.1 33 87
+ 0.229136 0 2 tcp 1040 ------- 0 0.0 3.1 34 88
- 0.229568 2 3 cbr 210 ------- 0 1.0 3.0 34 82
- 0.229728 0 2 tcp 1040 ------- 0 0.0 3.1 24 72
r 0.229736 2 3 tcp 1040 ------- 0 0.0 3.1 19 64
+ 0.229736 3 2 ack 40 ------- 0 3.1 0.0 19 89
- 0.229736 3 2 ack 40 ------- 0 3.1 0.0 19 89
- 0.229736 2 3 tcp 1040 ------- 0 0.0 3.1 21 68
r 0.229896 0 2 tcp 1040 ------- 0 0.0 3.1 22 69
+ 0.229896 2 3 tcp 1040 ------- 0 0.0 3.1 22 69
r 0.229936 3 2 ack 40 ------- 0 3.1 0.0 18 86
+ 0.229936 2 0 ack 40 ------- 0 3.1 0.0 18 86
- 0.229936 2 0 ack 40 ------- 0 3.1 0.0 18 86
r 0.230136 2 0 ack 40 ------- 0 3.1 0.0 17 83
+ 0.230136 0 2 tcp 1040 ------- 0 0.0 3.1 35 90
+ 0.230136 0 2 tcp 1040 ------- 0 0.0 3.1 36 91
- 0.23056 0 2 tcp 1040 ------- 0 0.0 3.1 25 74
r 0.230568 2 3 tcp 1040 ------- 0 0.0 3.1 20 65
+ 0.230568 3 2 ack 40 ------- 0 3.1 0.0 20 92
- 0.230568 3 2 ack 40 ------- 0 3.1 0.0 20 92
- 0.230568 2 3 tcp 1040 ------- 0 0.0 3.1 22 69
r 0.230728 0 2 tcp 1040 ------- 0 0.0 3.1 23 71
+ 0.230728 2 3 tcp 1040 ------- 0 0.0 3.1 23 71
r 0.230736 2 3 cbr 210 ------- 0 1.0 3.0 34 82
r 0.230768 3 2 ack 40 ------- 0 3.1 0.0 19 89
+ 0.230768 2 0 ack 40 ------- 0 3.1 0.0 19 89
- 0.230768 2 0 ack 40 ------- 0 3.1 0.0 19 89
r 0.230968 2 0 ack 40 ------- 0 3.1 0.0 18 86
+ 0.230968 0 2 tcp 1040 ------- 0 0.0 3.1 37 93
+ 0.230968 0 2 tcp 1040 ------- 0 0.0 3.1 38 94
+ 0.23125 1 2 cbr 210 ------- 0 1.0 3.0 35 95
- 0.23125 1 2 cbr 210 ------- 0 1.0 3.0 35 95
- 0.231392 0 2 tcp 1040 ------- 0 0.0 3.1 26 75
- 0.2314 2 3 tcp 1040 ------- 0 0.0 3.1 23 71
r 0.23156 0 2 tcp 1040 ------- 0 0.0 3.1 24 72
+ 0.23156 2 3 tcp 1040 ------- 0 0.0 3.1 24 72
r 0.231568 2 3 tcp 1040 ------- 0 0.0 3.1 21 68
+ 0.231568 3 2 ack 40 ------- 0 3.1 0.0 21 96
- 0.231568 3 2 ack 40 ------- 0 3.1 0.0 21 96
r 0.2316 3 2 ack 40 ------- 0 3.1 0.0 20 92
+ 0.2316 2 0 ack 40 ------- 0 3.1 0.0 20 92
- 0.2316 2 0 ack 40 ------- 0 3.1 0.0 20 92
r 0.2318 2 0 ack 40 ------- 0 3.1 0.0 19 89
+ 0.2318 0 2 tcp 1040 ------- 0 0.0 3.1 39 97
- 0.232224 0 2 tcp 1040 ------- 0 0.0 3.1 27 77
- 0.232232 2 3 tcp 1040 ------- 0 0.0 3.1 24 72
r 0.232392 0 2 tcp 1040 ------- 0 0.0 3.1 25 74
+ 0.232392 2 3 tcp 1040 ------- 0 0.0 3.1 25 74
r 0.2324 2 3 tcp 1040 ------- 0 0.0 3.1 22 69
+ 0.2324 3 2 ack 40 ------- 0 3.1 0.0 22 98
- 0.2324 3 2 ack 40 ------- 0 3.1 0.0 22 98
r 0.232418 1 2 cbr 210 ------- 0 1.0 3.0 35 95
+ 0.232418 2 3 cbr 210 ------- 0 1.0 3.0 35 95
r 0.2326 3 2 ack 40 ------- 0 3.1 0.0 21 96
+ 0.2326 2 0 ack 40 ------- 0 3.1 0.0 21 96
- 0.2326 2 0 ack 40 ------- 0 3.1 0.0 21 96
r 0.232632 2 0 ack 40 ------- 0 3.1 0.0 20 92
+ 0.232632 0 2 tcp 1040 ------- 0 0.0 3.1 40 99
- 0.233056 0 2 tcp 1040 ------- 0 0.0 3.1 28 78
- 0.233064 2 3 tcp 1040 ------- 0 0.0 3.1 25 74
r 0.233224 0 2 tcp 1040 ------- 0 0.0 3.1 26 75
+ 0.233224 2 3 tcp 1040 ------- 0 0.0 3.1 26 75
r 0.233232 2 3 tcp 1040 ------- 0 0.0 3.1 23 71
+ 0.233232 3 2 ack 40 ------- 0 3.1 0.0 23 100
- 0.233232 3 2 ack 40 ------- 0 3.1 0.0 23 100
r 0.233432 3 2 ack 40 ------- 0 3.1 0.0 22 98
+ 0.233432 2 0 ack 40 ------- 0 3.1 0.0 22 98
- 0.233432 2 0 ack 40 ------- 0 3.1 0.0 22 98
r 0.233632 2 0 ack 40 ------- 0 3.1 0.0 21 96
+ 0.233632 0 2 tcp 1040 ------- 0 0.0 3.1 41 101
- 0.233888 0 2 tcp 1040 ------- 0 0.0 3.1 29 80
- 0.233896 2 3 cbr 210 ------- 0 1.0 3.0 35 95
r 0.234056 0 2 tcp 1040 ------- 0 0.0 3.1 27 77
+ 0.234056 2 3 tcp 1040 ------- 0 0.0 3.1 27 77
r 0.234064 2 3 tcp 1040 ------- 0 0.0 3.1 24 72
+ 0.234064 3 2 ack 40 ------- 0 3.1 0.0 24 102
- 0.234064 3 2 ack 40 ------- 0 3.1 0.0 24 102
- 0.234064 2 3 tcp 1040 ------- 0 0.0 3.1 26 75
r 0.234264 3 2 ack 40 ------- 0 3.1 0.0 23 100
+ 0.234264 2 0 ack 40 ------- 0 3.1 0.0 23 100
- 0.234264 2 0 ack 40 ------- 0 3.1 0.0 23 100
r 0.234464 2 0 ack 40 ------- 0 3.1 0.0 22 98
+ 0.234464 0 2 tcp 1040 ------- 0 0.0 3.1 42 103
- 0.23472 0 2 tcp 1040 ------- 0 0.0 3.1 30 81
r 0.234888 0 2 tcp 1040 ------- 0 0.0 3.1 28 78
+ 0.234888 2 3 tcp 1040 ------- 0 0.0 3.1 28 78
r 0.234896 2 3 tcp 1040 ------- 0 0.0 3.1 25 74
+ 0.234896 3 2 ack 40 ------- 0 3.1 0.0 25 104
- 0.234896 3 2 ack 40 ------- 0 3.1 0.0 25 104
- 0.234896 2 3 tcp 1040 ------- 0 0.0 3.1 27 77
+ 0.235 1 2 cbr 210 ------- 0 1.0 3.0 36 105
- 0.235 1 2 cbr 210 ------- 0 1.0 3.0 36 105
r 0.235064 2 3 cbr 210 ------- 0 1.0 3.0 35 95
r 0.235096 3 2 ack 40 ------- 0 3.1 0.0 24 102
+ 0.235096 2 0 ack 40 ------- 0 3.1 0.0 24 102
- 0.235096 2 0 ack 40 ------- 0 3.1 0.0 24 102
r 0.235296 2 0 ack 40 ------- 0 3.1 0.0 23 100
+ 0.235296 0 2 tcp 1040 ------- 0 0.0 3.1 43 106
- 0.235552 0 2 tcp 1040 ------- 0 0.0 3.1 31 84
r 0.23572 0 2 tcp 1040 ------- 0 0.0 3.1 29 80
+ 0.23572 2 3 tcp 1040 ------- 0 0.0 3.1 29 80
- 0.235728 2 3 tcp 1040 ------- 0 0.0 3.1 28 78
r 0.235896 2 3 tcp 1040 ------- 0 0.0 3.1 26 75
+ 0.235896 3 2 ack 40 ------- 0 3.1 0.0 26 107
- 0.235896 3 2 ack 40 ------- 0 3.1 0.0 26 107
r 0.235928 3 2 ack 40 ------- 0 3.1 0.0 25 104
+ 0.235928 2 0 ack 40 ------- 0 3.1 0.0 25 104
- 0.235928 2 0 ack 40 ------- 0 3.1 0.0 25 104
r 0.236128 2 0 ack 40 ------- 0 3.1 0.0 24 102
+ 0.236128 0 2 tcp 1040 ------- 0 0.0 3.1 44 108
r 0.236168 1 2 cbr 210 ------- 0 1.0 3.0 36 105
+ 0.236168 2 3 cbr 210 ------- 0 1.0 3.0 36 105
- 0.236384 0 2 tcp 1040 ------- 0 0.0 3.1 32 85
r 0.236552 0 2 tcp 1040 ------- 0 0.0 3.1 30 81
+ 0.236552 2 3 tcp 1040 ------- 0 0.0 3.1 30 81
- 0.23656 2 3 tcp 1040 ------- 0 0.0 3.1 29 80
r 0.236728 2 3 tcp 1040 ------- 0 0.0 3.1 27 77
+ 0.236728 3 2 ack 40 ------- 0 3.1 0.0 27 109
- 0.236728 3 2 ack 40 ------- 0 3.1 0.0 27 109
r 0.236928 3 2 ack 40 ------- 0 3.1 0.0 26 107
+ 0.236928 2 0 ack 40 ------- 0 3.1 0.0 26 107
- 0.236928 2 0 ack 40 ------- 0 3.1 0.0 26 107
r 0.23696 2 0 ack 40 ------- 0 3.1 0.0 25 104
+ 0.23696 0 2 tcp 1040 ------- 0 0.0 3.1 45 110
- 0.237216 0 2 tcp 1040 ------- 0 0.0 3.1 33 87
r 0.237384 0 2 tcp 1040 ------- 0 0.0 3.1 31 84
+ 0.237384 2 3 tcp 1040 ------- 0 0.0 3.1 31 84
- 0.237392 2 3 cbr 210 ------- 0 1.0 3.0 36 105
r 0.23756 2 3 tcp 1040 ------- 0 0.0 3.1 28 78
+ 0.23756 3 2 ack 40 ------- 0 3.1 0.0 28 111
- 0.23756 3 2 ack 40 ------- 0 3.1 0.0 28 111
- 0.23756 2 3 tcp 1040 ------- 0 0.0 3.1 30 81
r 0.23776 3 2 ack 40 ------- 0 3.1 0.0 27 109
+ 0.23776 2 0 ack 40 ------- 0 3.1 0.0 27 109
- 0.23776 2 0 ack 40 ------- 0 3.1 0.0 27 109
r 0.23796 2 0 ack 40 ------- 0 3.1 0.0 26 107
+ 0.23796 0 2 tcp 1040 ------- 0 0.0 3.1 46 112
- 0.238048 0 2 tcp 1040 ------- 0 0.0 3.1 34 88
r 0.238216 0 2 tcp 1040 ------- 0 0.0 3.1 32 85
+ 0.238216 2 3 tcp 1040 ------- 0 0.0 3.1 32 85
r 0.238392 2 3 tcp 1040 ------- 0 0.0 3.1 29 80
+ 0.238392 3 2 ack 40 ------- 0 3.1 0.0 29 113
- 0.238392 3 2 ack 40 ------- 0 3.1 0.0 29 113
- 0.238392 2 3 tcp 1040 ------- 0 0.0 3.1 31 84
r 0.23856 2 3 cbr 210 ------- 0 1.0 3.0 36 105
r 0.238592 3 2 ack 40 ------- 0 3.1 0.0 28 111
+ 0.238592 2 0 ack 40 ------- 0 3.1 0.0 28 111
- 0.238592 2 0 ack 40 ------- 0 3.1 0.0 28 111
+ 0.23875 1 2 cbr 210 ------- 0 1.0 3.0 37 114
- 0.23875 1 2 cbr 210 ------- 0 1.0 3.0 37 114
r 0.238792 2 0 ack 40 ------- 0 3.1 0.0 27 109
+ 0.238792 0 2 tcp 1040 ------- 0 0.0 3.1 47 115
- 0.23888 0 2 tcp 1040 ------- 0 0.0 3.1 35 90
r 0.239048 0 2 tcp 1040 ------- 0 0.0 3.1 33 87
+ 0.239048 2 3 tcp 1040 ------- 0 0.0 3.1 33 87
- 0.239224 2 3 tcp 1040 ------- 0 0.0 3.1 32 85
r 0.239392 2 3 tcp 1040 ------- 0 0.0 3.1 30 81
+ 0.239392 3 2 ack 40 ------- 0 3.1 0.0 30 116
- 0.239392 3 2 ack 40 ------- 0 3.1 0.0 30 116
r 0.239424 3 2 ack 40 ------- 0 3.1 0.0 29 113
+ 0.239424 2 0 ack 40 ------- 0 3.1 0.0 29 113
- 0.239424 2 0 ack 40 ------- 0 3.1 0.0 29 113
r 0.239624 2 0 ack 40 ------- 0 3.1 0.0 28 111
+ 0.239624 0 2 tcp 1040 ------- 0 0.0 3.1 48 117
- 0.239712 0 2 tcp 1040 ------- 0 0.0 3.1 36 91
r 0.23988 0 2 tcp 1040 ------- 0 0.0 3.1 34 88
+ 0.23988 2 3 tcp 1040 ------- 0 0.0 3.1 34 88
r 0.239918 1 2 cbr 210 ------- 0 1.0 3.0 37 114
+ 0.239918 2 3 cbr 210 ------- 0 1.0 3.0 37 114
- 0.240056 2 3 tcp 1040 ------- 0 0.0 3.1 33 87
r 0.240224 2 3 tcp 1040 ------- 0 0.0 3.1 31 84
+ 0.240224 3 2 ack 40 ------- 0 3.1 0.0 31 118
- 0.240224 3 2 ack 40 ------- 0 3.1 0.0 31 118
r 0.240424 3 2 ack 40 ------- 0 3.1 0.0 30 116
+ 0.240424 2 0 ack 40 ------- 0 3.1 0.0 30 116
- 0.240424 2 0 ack 40 ------- 0 3.1 0.0 30 116
r 0.240456 2 0 ack 40 ------- 0 3.1 0.0 29 113
+ 0.240456 0 2 tcp 1040 ------- 0 0.0 3.1 49 119
- 0.240544 0 2 tcp 1040 ------- 0 0.0 3.1 37 93
r 0.240712 0 2 tcp 1040 ------- 0 0.0 3.1 35 90
+ 0.240712 2 3 tcp 1040 ------- 0 0.0 3.1 35 90
- 0.240888 2 3 tcp 1040 ------- 0 0.0 3.1 34 88
r 0.241056 2 3 tcp 1040 ------- 0 0.0 3.1 32 85
+ 0.241056 3 2 ack 40 ------- 0 3.1 0.0 32 120
- 0.241056 3 2 ack 40 ------- 0 3.1 0.0 32 120
r 0.241256 3 2 ack 40 ------- 0 3.1 0.0 31 118
+ 0.241256 2 0 ack 40 ------- 0 3.1 0.0 31 118
- 0.241256 2 0 ack 40 ------- 0 3.1 0.0 31 118