+ 0.1 0 1 cbr 500 ------- 0 0.0 2.0 0 0
- 0.1 0 1 cbr 500 ------- 0 0.0 2.0 0 0
+ 0.105 0 1 cbr 500 ------- 0 0.0 2.0 1 1
- 0.105 0 1 cbr 500 ------- 0 0.0 2.0 1 1
+ 0.11 0 1 cbr 500 ------- 0 0.0 2.0 2 2
- 0.11 0 1 cbr 500 ------- 0 0.0 2.0 2 2
r 0.11002 0 1 cbr 500 ------- 0 0.0 2.0 0 0
+ 0.11002 1 2 cbr 500 ------- 0 0.0 2.0 0 0
- 0.11002 1 2 cbr 500 ------- 0 0.0 2.0 0 0
+ 0.115 0 1 cbr 500 ------- 0 0.0 2.0 3 3
- 0.115 0 1 cbr 500 ------- 0 0.0 2.0 3 3
r 0.11502 0 1 cbr 500 ------- 0 0.0 2.0 1 1
+ 0.11502 1 2 cbr 500 ------- 0 0.0 2.0 1 1
- 0.11502 1 2 cbr 500 ------- 0 0.0 2.0 1 1
+ 0.12 0 1 cbr 500 ------- 0 0.0 2.0 4 4
- 0.12 0 1 cbr 500 ------- 0 0.0 2.0 4 4
r 0.12002 0 1 cbr 500 ------- 0 0.0 2.0 2 2
+ 0.12002 1 2 cbr 500 ------- 0 0.0 2.0 2 2
- 0.12002 1 2 cbr 500 ------- 0 0.0 2.0 2 2
+ 0.125 0 1 cbr 500 ------- 0 0.0 2.0 5 5
- 0.125 0 1 cbr 500 ------- 0 0.0 2.0 5 5
r 0.12502 0 1 cbr 500 ------- 0 0.0 2.0 3 3
+ 0.12502 1 2 cbr 500 ------- 0 0.0 2.0 3 3
- 0.12502 1 2 cbr 500 ------- 0 0.0 2.0 3 3
+ 0.13 0 1 cbr 500 ------- 0 0.0 2.0 6 6
- 0.13 0 1 cbr 500 ------- 0 0.0 2.0 6 6
r 0.13002 0 1 cbr 500 ------- 0 0.0 2.0 4 4
+ 0.13002 1 2 cbr 500 ------- 0 0.0 2.0 4 4
- 0.13002 1 2 cbr 500 ------- 0 0.0 2.0 4 4
+ 0.135 0 1 cbr 500 ------- 0 0.0 2.0 7 7
- 0.135 0 1 cbr 500 ------- 0 0.0 2.0 7 7
r 0.13502 0 1 cbr 500 ------- 0 0.0 2.0 5 5
+ 0.13502 1 2 cbr 500 ------- 0 0.0 2.0 5 5
- 0.13502 1 2 cbr 500 ------- 0 0.0 2.0 5 5
+ 0.14 0 1 cbr 500 ------- 0 0.0 2.0 8 8
- 0.14 0 1 cbr 500 ------- 0 0.0 2.0 8 8
r 0.14002 0 1 cbr 500 ------- 0 0.0 2.0 6 6
+ 0.14002 1 2 cbr 500 ------- 0 0.0 2.0 6 6
- 0.14002 1 2 cbr 500 ------- 0 0.0 2.0 6 6
+ 0.145 0 1 cbr 500 ------- 0 0.0 2.0 9 9
- 0.145 0 1 cbr 500 ------- 0 0.0 2.0 9 9
r 0.14502 0 1 cbr 500 ------- 0 0.0 2.0 7 7
+ 0.14502 1 2 cbr 500 ------- 0 0.0 2.0 7 7
- 0.14502 1 2 cbr 500 ------- 0 0.0 2.0 7 7
+ 0.15 0 1 cbr 500 ------- 0 0.0 2.0 10 10
- 0.15 0 1 cbr 500 ------- 0 0.0 2.0 10 10
r 0.15002 0 1 cbr 500 ------- 0 0.0 2.0 8 8
+ 0.15002 1 2 cbr 500 ------- 0 0.0 2.0 8 8
- 0.15002 1 2 cbr 500 ------- 0 0.0 2.0 8 8
+ 0.155 0 1 cbr 500 ------- 0 0.0 2.0 11 11
- 0.155 0 1 cbr 500 ------- 0 0.0 2.0 11 11
r 0.15502 0 1 cbr 500 ------- 0 0.0 2.0 9 9
+ 0.15502 1 2 cbr 500 ------- 0 0.0 2.0 9 9
- 0.15502 1 2 cbr 500 ------- 0 0.0 2.0 9 9
+ 0.16 0 1 cbr 500 ------- 0 0.0 2.0 12 12
- 0.16 0 1 cbr 500 ------- 0 0.0 2.0 12 12
r 0.16002 0 1 cbr 500 ------- 0 0.0 2.0 10 10
+ 0.16002 1 2 cbr 500 ------- 0 0.0 2.0 10 10
- 0.16002 1 2 cbr 500 ------- 0 0.0 2.0 10 10
+ 0.165 0 1 cbr 500 ------- 0 0.0 2.0 13 13
- 0.165 0 1 cbr 500 ------- 0 0.0 2.0 13 13
r 0.16502 0 1 cbr 500 ------- 0 0.0 2.0 11 11
+ 0.16502 1 2 cbr 500 ------- 0 0.0 2.0 11 11
- 0.16502 1 2 cbr 500 ------- 0 0.0 2.0 11 11
+ 0.17 0 1 cbr 500 ------- 0 0.0 2.0 14 14
- 0.17 0 1 cbr 500 ------- 0 0.0 2.0 14 14
r 0.17002 0 1 cbr 500 ------- 0 0.0 2.0 12 12
+ 0.17002 1 2 cbr 500 ------- 0 0.0 2.0 12 12
- 0.17002 1 2 cbr 500 ------- 0 0.0 2.0 12 12
+ 0.175 0 1 cbr 500 ------- 0 0.0 2.0 15 15
- 0.175 0 1 cbr 500 ------- 0 0.0 2.0 15 15
r 0.17502 0 1 cbr 500 ------- 0 0.0 2.0 13 13
+ 0.17502 1 2 cbr 500 ------- 0 0.0 2.0 13 13
- 0.17502 1 2 cbr 500 ------- 0 0.0 2.0 13 13
+ 0.18 0 1 cbr 500 ------- 0 0.0 2.0 16 16
- 0.18 0 1 cbr 500 ------- 0 0.0 2.0 16 16
r 0.18002 0 1 cbr 500 ------- 0 0.0 2.0 14 14
+ 0.18002 1 2 cbr 500 ------- 0 0.0 2.0 14 14
- 0.18002 1 2 cbr 500 ------- 0 0.0 2.0 14 14
+ 0.185 0 1 cbr 500 ------- 0 0.0 2.0 17 17
- 0.185 0 1 cbr 500 ------- 0 0.0 2.0 17 17
r 0.18502 0 1 cbr 500 ------- 0 0.0 2.0 15 15
+ 0.18502 1 2 cbr 500 ------- 0 0.0 2.0 15 15
- 0.18502 1 2 cbr 500 ------- 0 0.0 2.0 15 15
+ 0.19 0 1 cbr 500 ------- 0 0.0 2.0 18 18
- 0.19 0 1 cbr 500 ------- 0 0.0 2.0 18 18
r 0.19002 0 1 cbr 500 ------- 0 0.0 2.0 16 16
+ 0.19002 1 2 cbr 500 ------- 0 0.0 2.0 16 16
- 0.19002 1 2 cbr 500 ------- 0 0.0 2.0 16 16
+ 0.195 0 1 cbr 500 ------- 0 0.0 2.0 19 19
- 0.195 0 1 cbr 500 ------- 0 0.0 2.0 19 19
r 0.19502 0 1 cbr 500 ------- 0 0.0 2.0 17 17
+ 0.19502 1 2 cbr 500 ------- 0 0.0 2.0 17 17
- 0.19502 1 2 cbr 500 ------- 0 0.0 2.0 17 17
+ 0.2 0 1 cbr 500 ------- 0 0.0 2.0 20 20
- 0.2 0 1 cbr 500 ------- 0 0.0 2.0 20 20
r 0.20002 0 1 cbr 500 ------- 0 0.0 2.0 18 18
+ 0.20002 1 2 cbr 500 ------- 0 0.0 2.0 18 18
- 0.20002 1 2 cbr 500 ------- 0 0.0 2.0 18 18
+ 0.205 0 1 cbr 500 ------- 0 0.0 2.0 21 21
- 0.205 0 1 cbr 500 ------- 0 0.0 2.0 21 21
r 0.20502 0 1 cbr 500 ------- 0 0.0 2.0 19 19
+ 0.20502 1 2 cbr 500 ------- 0 0.0 2.0 19 19
- 0.20502 1 2 cbr 500 ------- 0 0.0 2.0 19 19
+ 0.21 0 1 cbr 500 ------- 0 0.0 2.0 22 22
- 0.21 0 1 cbr 500 ------- 0 0.0 2.0 22 22
r 0.21002 0 1 cbr 500 ------- 0 0.0 2.0 20 20
+ 0.21002 1 2 cbr 500 ------- 0 0.0 2.0 20 20
- 0.21002 1 2 cbr 500 ------- 0 0.0 2.0 20 20
+ 0.215 0 1 cbr 500 ------- 0 0.0 2.0 23 23
- 0.215 0 1 cbr 500 ------- 0 0.0 2.0 23 23
r 0.21502 0 1 cbr 500 ------- 0 0.0 2.0 21 21
+ 0.21502 1 2 cbr 500 ------- 0 0.0 2.0 21 21
- 0.21502 1 2 cbr 500 ------- 0 0.0 2.0 21 21
+ 0.22 0 1 cbr 500 ------- 0 0.0 2.0 24 24
- 0.22 0 1 cbr 500 ------- 0 0.0 2.0 24 24
r 0.22002 0 1 cbr 500 ------- 0 0.0 2.0 22 22
+ 0.22002 1 2 cbr 500 ------- 0 0.0 2.0 22 22
- 0.22002 1 2 cbr 500 ------- 0 0.0 2.0 22 22
+ 0.225 0 1 cbr 500 ------- 0 0.0 2.0 25 25
- 0.225 0 1 cbr 500 ------- 0 0.0 2.0 25 25
r 0.22502 0 1 cbr 500 ------- 0 0.0 2.0 23 23
+ 0.22502 1 2 cbr 500 ------- 0 0.0 2.0 23 23
- 0.22502 1 2 cbr 500 ------- 0 0.0 2.0 23 23
+ 0.23 0 1 cbr 500 ------- 0 0.0 2.0 26 26
- 0.23 0 1 cbr 500 ------- 0 0.0 2.0 26 26
r 0.23002 0 1 cbr 500 ------- 0 0.0 2.0 24 24
+ 0.23002 1 2 cbr 500 ------- 0 0.0 2.0 24 24
- 0.23002 1 2 cbr 500 ------- 0 0.0 2.0 24 24
+ 0.235 0 1 cbr 500 ------- 0 0.0 2.0 27 27
- 0.235 0 1 cbr 500 ------- 0 0.0 2.0 27 27
r 0.23502 0 1 cbr 500 ------- 0 0.0 2.0 25 25
+ 0.23502 1 2 cbr 500 ------- 0 0.0 2.0 25 25
- 0.23502 1 2 cbr 500 ------- 0 0.0 2.0 25 25
+ 0.24 0 1 cbr 500 ------- 0 0.0 2.0 28 28
- 0.24 0 1 cbr 500 ------- 0 0.0 2.0 28 28
r 0.24002 0 1 cbr 500 ------- 0 0.0 2.0 26 26
+ 0.24002 1 2 cbr 500 ------- 0 0.0 2.0 26 26
- 0.24002 1 2 cbr 500 ------- 0 0.0 2.0 26 26
+ 0.245 0 1 cbr 500 ------- 0 0.0 2.0 29 29
- 0.245 0 1 cbr 500 ------- 0 0.0 2.0 29 29
r 0.24502 0 1 cbr 500 ------- 0 0.0 2.0 27 27
+ 0.24502 1 2 cbr 500 ------- 0 0.0 2.0 27 27
- 0.24502 1 2 cbr 500 ------- 0 0.0 2.0 27 27
+ 0.25 0 1 cbr 500 ------- 0 0.0 2.0 30 30
- 0.25 0 1 cbr 500 ------- 0 0.0 2.0 30 30
r 0.25002 0 1 cbr 500 ------- 0 0.0 2.0 28 28
+ 0.25002 1 2 cbr 500 ------- 0 0.0 2.0 28 28
- 0.25002 1 2 cbr 500 ------- 0 0.0 2.0 28 28
+ 0.255 0 1 cbr 500 ------- 0 0.0 2.0 31 31
- 0.255 0 1 cbr 500 ------- 0 0.0 2.0 31 31
r 0.25502 0 1 cbr 500 ------- 0 0.0 2.0 29 29
+ 0.25502 1 2 cbr 500 ------- 0 0.0 2.0 29 29
- 0.25502 1 2 cbr 500 ------- 0 0.0 2.0 29 29
+ 0.26 0 1 cbr 500 ------- 0 0.0 2.0 32 32
- 0.26 0 1 cbr 500 ------- 0 0.0 2.0 32 32
r 0.26002 0 1 cbr 500 ------- 0 0.0 2.0 30 30
+ 0.26002 1 2 cbr 500 ------- 0 0.0 2.0 30 30
- 0.26002 1 2 cbr 500 ------- 0 0.0 2.0 30 30
+ 0.265 0 1 cbr 500 ------- 0 0.0 2.0 33 33
- 0.265 0 1 cbr 500 ------- 0 0.0 2.0 33 33
r 0.26502 0 1 cbr 500 ------- 0 0.0 2.0 31 31
+ 0.26502 1 2 cbr 500 ------- 0 0.0 2.0 31 31
- 0.26502 1 2 cbr 500 ------- 0 0.0 2.0 31 31
+ 0.27 0 1 cbr 500 ------- 0 0.0 2.0 34 34
- 0.27 0 1 cbr 500 ------- 0 0.0 2.0 34 34
r 0.27002 0 1 cbr 500 ------- 0 0.0 2.0 32 32
+ 0.27002 1 2 cbr 500 ------- 0 0.0 2.0 32 32
- 0.27002 1 2 cbr 500 ------- 0 0.0 2.0 32 32
+ 0.275 0 1 cbr 500 ------- 0 0.0 2.0 35 35
- 0.275 0 1 cbr 500 ------- 0 0.0 2.0 35 35
r 0.27502 0 1 cbr 500 ------- 0 0.0 2.0 33 33
+ 0.27502 1 2 cbr 500 ------- 0 0.0 2.0 33 33
- 0.27502 1 2 cbr 500 ------- 0 0.0 2.0 33 33
+ 0.28 0 1 cbr 500 ------- 0 0.0 2.0 36 36
- 0.28 0 1 cbr 500 ------- 0 0.0 2.0 36 36
r 0.28002 0 1 cbr 500 ------- 0 0.0 2.0 34 34
+ 0.28002 1 2 cbr 500 ------- 0 0.0 2.0 34 34
- 0.28002 1 2 cbr 500 ------- 0 0.0 2.0 34 34
+ 0.285 0 1 cbr 500 ------- 0 0.0 2.0 37 37
- 0.285 0 1 cbr 500 ------- 0 0.0 2.0 37 37
r 0.28502 0 1 cbr 500 ------- 0 0.0 2.0 35 35
+ 0.28502 1 2 cbr 500 ------- 0 0.0 2.0 35 35
- 0.28502 1 2 cbr 500 ------- 0 0.0 2.0 35 35
+ 0.29 0 1 cbr 500 ------- 0 0.0 2.0 38 38
- 0.29 0 1 cbr 500 ------- 0 0.0 2.0 38 38
r 0.29002 0 1 cbr 500 ------- 0 0.0 2.0 36 36
+ 0.29002 1 2 cbr 500 ------- 0 0.0 2.0 36 36
- 0.29002 1 2 cbr 500 ------- 0 0.0 2.0 36 36
+ 0.295 0 1 cbr 500 ------- 0 0.0 2.0 39 39
- 0.295 0 1 cbr 500 ------- 0 0.0 2.0 39 39
r 0.29502 0 1 cbr 500 ------- 0 0.0 2.0 37 37
+ 0.29502 1 2 cbr 500 ------- 0 0.0 2.0 37 37
- 0.29502 1 2 cbr 500 ------- 0 0.0 2.0 37 37
+ 0.3 0 1 cbr 500 ------- 0 0.0 2.0 40 40
- 0.3 0 1 cbr 500 ------- 0 0.0 2.0 40 40
r 0.30002 0 1 cbr 500 ------- 0 0.0 2.0 38 38
+ 0.30002 1 2 cbr 500 ------- 0 0.0 2.0 38 38
- 0.30002 1 2 cbr 500 ------- 0 0.0 2.0 38 38
+ 0.305 0 1 cbr 500 ------- 0 0.0 2.0 41 41
- 0.305 0 1 cbr 500 ------- 0 0.0 2.0 41 41
r 0.30502 0 1 cbr 500 ------- 0 0.0 2.0 39 39
+ 0.30502 1 2 cbr 500 ------- 0 0.0 2.0 39 39
- 0.30502 1 2 cbr 500 ------- 0 0.0 2.0 39 39
+ 0.31 0 1 cbr 500 ------- 0 0.0 2.0 42 42
- 0.31 0 1 cbr 500 ------- 0 0.0 2.0 42 42
r 0.31002 0 1 cbr 500 ------- 0 0.0 2.0 40 40
+ 0.31002 1 2 cbr 500 ------- 0 0.0 2.0 40 40
- 0.31002 1 2 cbr 500 ------- 0 0.0 2.0 40 40
+ 0.315 0 1 cbr 500 ------- 0 0.0 2.0 43 43
- 0.315 0 1 cbr 500 ------- 0 0.0 2.0 43 43
r 0.31502 0 1 cbr 500 ------- 0 0.0 2.0 41 41
+ 0.31502 1 2 cbr 500 ------- 0 0.0 2.0 41 41
- 0.31502 1 2 cbr 500 ------- 0 0.0 2.0 41 41
+ 0.32 0 1 cbr 500 ------- 0 0.0 2.0 44 44
- 0.32 0 1 cbr 500 ------- 0 0.0 2.0 44 44
r 0.32002 0 1 cbr 500 ------- 0 0.0 2.0 42 42
+ 0.32002 1 2 cbr 500 ------- 0 0.0 2.0 42 42
- 0.32002 1 2 cbr 500 ------- 0 0.0 2.0 42 42
+ 0.325 0 1 cbr 500 ------- 0 0.0 2.0 45 45
- 0.325 0 1 cbr 500 ------- 0 0.0 2.0 45 45
r 0.32502 0 1 cbr 500 ------- 0 0.0 2.0 43 43
+ 0.32502 1 2 cbr 500 ------- 0 0.0 2.0 43 43
- 0.32502 1 2 cbr 500 ------- 0 0.0 2.0 43 43
+ 0.33 0 1 cbr 500 ------- 0 0.0 2.0 46 46
- 0.33 0 1 cbr 500 ------- 0 0.0 2.0 46 46
r 0.33002 0 1 cbr 500 ------- 0 0.0 2.0 44 44
+ 0.33002 1 2 cbr 500 ------- 0 0.0 2.0 44 44
- 0.33002 1 2 cbr 500 ------- 0 0.0 2.0 44 44
+ 0.335 0 1 cbr 500 ------- 0 0.0 2.0 47 47
- 0.335 0 1 cbr 500 ------- 0 0.0 2.0 47 47
r 0.33502 0 1 cbr 500 ------- 0 0.0 2.0 45 45
+ 0.33502 1 2 cbr 500 ------- 0 0.0 2.0 45 45
- 0.33502 1 2 cbr 500 ------- 0 0.0 2.0 45 45
+ 0.34 0 1 cbr 500 ------- 0 0.0 2.0 48 48
- 0.34 0 1 cbr 500 ------- 0 0.0 2.0 48 48
r 0.34002 0 1 cbr 500 ------- 0 0.0 2.0 46 46
+ 0.34002 1 2 cbr 500 ------- 0 0.0 2.0 46 46
- 0.34002 1 2 cbr 500 ------- 0 0.0 2.0 46 46
+ 0.345 0 1 cbr 500 ------- 0 0.0 2.0 49 49
- 0.345 0 1 cbr 500 ------- 0 0.0 2.0 49 49
r 0.34502 0 1 cbr 500 ------- 0 0.0 2.0 47 47
+ 0.34502 1 2 cbr 500 ------- 0 0.0 2.0 47 47
- 0.34502 1 2 cbr 500 ------- 0 0.0 2.0 47 47
+ 0.35 0 1 cbr 500 ------- 0 0.0 2.0 50 50
- 0.35 0 1 cbr 500 ------- 0 0.0 2.0 50 50
r 0.35002 0 1 cbr 500 ------- 0 0.0 2.0 48 48
+ 0.35002 1 2 cbr 500 ------- 0 0.0 2.0 48 48
- 0.35002 1 2 cbr 500 ------- 0 0.0 2.0 48 48
+ 0.355 0 1 cbr 500 ------- 0 0.0 2.0 51 51
- 0.355 0 1 cbr 500 ------- 0 0.0 2.0 51 51
r 0.35502 0 1 cbr 500 ------- 0 0.0 2.0 49 49
+ 0.35502 1 2 cbr 500 ------- 0 0.0 2.0 49 49
- 0.35502 1 2 cbr 500 ------- 0 0.0 2.0 49 49
+ 0.36 0 1 cbr 500 ------- 0 0.0 2.0 52 52
- 0.36 0 1 cbr 500 ------- 0 0.0 2.0 52 52
r 0.36002 0 1 cbr 500 ------- 0 0.0 2.0 50 50
+ 0.36002 1 2 cbr 500 ------- 0 0.0 2.0 50 50
- 0.36002 1 2 cbr 500 ------- 0 0.0 2.0 50 50
+ 0.365 0 1 cbr 500 ------- 0 0.0 2.0 53 53
- 0.365 0 1 cbr 500 ------- 0 0.0 2.0 53 53
r 0.36502 0 1 cbr 500 ------- 0 0.0 2.0 51 51
+ 0.36502 1 2 cbr 500 ------- 0 0.0 2.0 51 51
- 0.36502 1 2 cbr 500 ------- 0 0.0 2.0 51 51
+ 0.37 0 1 cbr 500 ------- 0 0.0 2.0 54 54
- 0.37 0 1 cbr 500 ------- 0 0.0 2.0 54 54
r 0.37002 0 1 cbr 500 ------- 0 0.0 2.0 52 52
+ 0.37002 1 2 cbr 500 ------- 0 0.0 2.0 52 52
- 0.37002 1 2 cbr 500 ------- 0 0.0 2.0 52 52
+ 0.375 0 1 cbr 500 ------- 0 0.0 2.0 55 55
- 0.375 0 1 cbr 500 ------- 0 0.0 2.0 55 55
r 0.37502 0 1 cbr 500 ------- 0 0.0 2.0 53 53
+ 0.37502 1 2 cbr 500 ------- 0 0.0 2.0 53 53
- 0.37502 1 2 cbr 500 ------- 0 0.0 2.0 53 53
+ 0.38 0 1 cbr 500 ------- 0 0.0 2.0 56 56
- 0.38 0 1 cbr 500 ------- 0 0.0 2.0 56 56
r 0.38002 0 1 cbr 500 ------- 0 0.0 2.0 54 54
+ 0.38002 1 2 cbr 500 ------- 0 0.0 2.0 54 54
- 0.38002 1 2 cbr 500 ------- 0 0.0 2.0 54 54
+ 0.385 0 1 cbr 500 ------- 0 0.0 2.0 57 57
- 0.385 0 1 cbr 500 ------- 0 0.0 2.0 57 57
r 0.38502 0 1 cbr 500 ------- 0 0.0 2.0 55 55
+ 0.38502 1 2 cbr 500 ------- 0 0.0 2.0 55 55
- 0.38502 1 2 cbr 500 ------- 0 0.0 2.0 55 55
+ 0.39 0 1 cbr 500 ------- 0 0.0 2.0 58 58
- 0.39 0 1 cbr 500 ------- 0 0.0 2.0 58 58
r 0.39002 0 1 cbr 500 ------- 0 0.0 2.0 56 56
+ 0.39002 1 2 cbr 500 ------- 0 0.0 2.0 56 56
- 0.39002 1 2 cbr 500 ------- 0 0.0 2.0 56 56
+ 0.395 0 1 cbr 500 ------- 0 0.0 2.0 59 59
- 0.395 0 1 cbr 500 ------- 0 0.0 2.0 59 59
r 0.39502 0 1 cbr 500 ------- 0 0.0 2.0 57 57
+ 0.39502 1 2 cbr 500 ------- 0 0.0 2.0 57 57
- 0.39502 1 2 cbr 500 ------- 0 0.0 2.0 57 57
+ 0.4 0 1 cbr 500 ------- 0 0.0 2.0 60 60
- 0.4 0 1 cbr 500 ------- 0 0.0 2.0 60 60
r 0.40002 0 1 cbr 500 ------- 0 0.0 2.0 58 58
+ 0.40002 1 2 cbr 500 ------- 0 0.0 2.0 58 58
- 0.40002 1 2 cbr 500 ------- 0 0.0 2.0 58 58
+ 0.405 0 1 cbr 500 ------- 0 0.0 2.0 61 61
- 0.405 0 1 cbr 500 ------- 0 0.0 2.0 61 61
r 0.40502 0 1 cbr 500 ------- 0 0.0 2.0 59 59
+ 0.40502 1 2 cbr 500 ------- 0 0.0 2.0 59 59
- 0.40502 1 2 cbr 500 ------- 0 0.0 2.0 59 59
+ 0.41 0 1 cbr 500 ------- 0 0.0 2.0 62 62
- 0.41 0 1 cbr 500 ------- 0 0.0 2.0 62 62
r 0.41002 0 1 cbr 500 ------- 0 0.0 2.0 60 60
+ 0.41002 1 2 cbr 500 ------- 0 0.0 2.0 60 60
- 0.41002 1 2 cbr 500 ------- 0 0.0 2.0 60 60
+ 0.415 0 1 cbr 500 ------- 0 0.0 2.0 63 63
- 0.415 0 1 cbr 500 ------- 0 0.0 2.0 63 63
r 0.41502 0 1 cbr 500 ------- 0 0.0 2.0 61 61
+ 0.41502 1 2 cbr 500 ------- 0 0.0 2.0 61 61
- 0.41502 1 2 cbr 500 ------- 0 0.0 2.0 61 61
+ 0.42 0 1 cbr 500 ------- 0 0.0 2.0 64 64
- 0.42 0 1 cbr 500 ------- 0 0.0 2.0 64 64
r 0.42002 0 1 cbr 500 ------- 0 0.0 2.0 62 62
+ 0.42002 1 2 cbr 500 ------- 0 0.0 2.0 62 62
- 0.42002 1 2 cbr 500 ------- 0 0.0 2.0 62 62
+ 0.425 0 1 cbr 500 ------- 0 0.0 2.0 65 65
- 0.425 0 1 cbr 500 ------- 0 0.0 2.0 65 65
r 0.42502 0 1 cbr 500 ------- 0 0.0 2.0 63 63
+ 0.42502 1 2 cbr 500 ------- 0 0.0 2.0 63 63
- 0.42502 1 2 cbr 500 ------- 0 0.0 2.0 63 63
+ 0.43 0 1 cbr 500 ------- 0 0.0 2.0 66 66
- 0.43 0 1 cbr 500 ------- 0 0.0 2.0 66 66
r 0.43002 0 1 cbr 500 ------- 0 0.0 2.0 64 64
+ 0.43002 1 2 cbr 500 ------- 0 0.0 2.0 64 64
- 0.43002 1 2 cbr 500 ------- 0 0.0 2.0 64 64
+ 0.435 0 1 cbr 500 ------- 0 0.0 2.0 67 67
- 0.435 0 1 cbr 500 ------- 0 0.0 2.0 67 67
r 0.43502 0 1 cbr 500 ------- 0 0.0 2.0 65 65
+ 0.43502 1 2 cbr 500 ------- 0 0.0 2.0 65 65
- 0.43502 1 2 cbr 500 ------- 0 0.0 2.0 65 65
+ 0.44 0 1 cbr 500 ------- 0 0.0 2.0 68 68
- 0.44 0 1 cbr 500 ------- 0 0.0 2.0 68 68
r 0.44002 0 1 cbr 500 ------- 0 0.0 2.0 66 66
+ 0.44002 1 2 cbr 500 ------- 0 0.0 2.0 66 66
- 0.44002 1 2 cbr 500 ------- 0 0.0 2.0 66 66
+ 0.445 0 1 cbr 500 ------- 0 0.0 2.0 69 69
- 0.445 0 1 cbr 500 ------- 0 0.0 2.0 69 69
r 0.44502 0 1 cbr 500 ------- 0 0.0 2.0 67 67
+ 0.44502 1 2 cbr 500 ------- 0 0.0 2.0 67 67
- 0.44502 1 2 cbr 500 ------- 0 0.0 2.0 67 67
+ 0.45 0 1 cbr 500 ------- 0 0.0 2.0 70 70
- 0.45 0 1 cbr 500 ------- 0 0.0 2.0 70 70
r 0.45002 0 1 cbr 500 ------- 0 0.0 2.0 68 68
+ 0.45002 1 2 cbr 500 ------- 0 0.0 2.0 68 68
- 0.45002 1 2 cbr 500 ------- 0 0.0 2.0 68 68
+ 0.455 0 1 cbr 500 ------- 0 0.0 2.0 71 71
- 0.455 0 1 cbr 500 ------- 0 0.0 2.0 71 71
r 0.45502 0 1 cbr 500 ------- 0 0.0 2.0 69 69
+ 0.45502 1 2 cbr 500 ------- 0 0.0 2.0 69 69
- 0.45502 1 2 cbr 500 ------- 0 0.0 2.0 69 69
+ 0.46 0 1 cbr 500 ------- 0 0.0 2.0 72 72
- 0.46 0 1 cbr 500 ------- 0 0.0 2.0 72 72
r 0.46002 0 1 cbr 500 ------- 0 0.0 2.0 70 70
+ 0.46002 1 2 cbr 500 ------- 0 0.0 2.0 70 70
- 0.46002 1 2 cbr 500 ------- 0 0.0 2.0 70 70
+ 0.465 0 1 cbr 500 ------- 0 0.0 2.0 73 73
- 0.465 0 1 cbr 500 ------- 0 0.0 2.0 73 73
r 0.46502 0 1 cbr 500 ------- 0 0.0 2.0 71 71
+ 0.46502 1 2 cbr 500 ------- 0 0.0 2.0 71 71
- 0.46502 1 2 cbr 500 ------- 0 0.0 2.0 71 71
+ 0.47 0 1 cbr 500 ------- 0 0.0 2.0 74 74
- 0.47 0 1 cbr 500 ------- 0 0.0 2.0 74 74
r 0.47002 0 1 cbr 500 ------- 0 0.0 2.0 72 72
+ 0.47002 1 2 cbr 500 ------- 0 0.0 2.0 72 72
- 0.47002 1 2 cbr 500 ------- 0 0.0 2.0 72 72
+ 0.475 0 1 cbr 500 ------- 0 0.0 2.0 75 75
- 0.475 0 1 cbr 500 ------- 0 0.0 2.0 75 75
r 0.47502 0 1 cbr 500 ------- 0 0.0 2.0 73 73
+ 0.47502 1 2 cbr 500 ------- 0 0.0 2.0 73 73
- 0.47502 1 2 cbr 500 ------- 0 0.0 2.0 73 73
+ 0.48 0 1 cbr 500 ------- 0 0.0 2.0 76 76
- 0.48 0 1 cbr 500 ------- 0 0.0 2.0 76 76
r 0.48002 0 1 cbr 500 ------- 0 0.0 2.0 74 74
+ 0.48002 1 2 cbr 500 ------- 0 0.0 2.0 74 74
- 0.48002 1 2 cbr 500 ------- 0 0.0 2.0 74 74
+ 0.485 0 1 cbr 500 ------- 0 0.0 2.0 77 77
- 0.485 0 1 cbr 500 ------- 0 0.0 2.0 77 77
r 0.48502 0 1 cbr 500 ------- 0 0.0 2.0 75 75
+ 0.48502 1 2 cbr 500 ------- 0 0.0 2.0 75 75
- 0.48502 1 2 cbr 500 ------- 0 0.0 2.0 75 75
+ 0.49 0 1 cbr 500 ------- 0 0.0 2.0 78 78
- 0.49 0 1 cbr 500 ------- 0 0.0 2.0 78 78
r 0.49002 0 1 cbr 500 ------- 0 0.0 2.0 76 76
+ 0.49002 1 2 cbr 500 ------- 0 0.0 2.0 76 76
- 0.49002 1 2 cbr 500 ------- 0 0.0 2.0 76 76
+ 0.495 0 1 cbr 500 ------- 0 0.0 2.0 79 79
- 0.495 0 1 cbr 500 ------- 0 0.0 2.0 79 79
r 0.49502 0 1 cbr 500 ------- 0 0.0 2.0 77 77
+ 0.49502 1 2 cbr 500 ------- 0 0.0 2.0 77 77
- 0.49502 1 2 cbr 500 ------- 0 0.0 2.0 77 77
+ 0.5 0 1 cbr 500 ------- 0 0.0 2.0 80 80
- 0.5 0 1 cbr 500 ------- 0 0.0 2.0 80 80
r 0.50002 0 1 cbr 500 ------- 0 0.0 2.0 78 78
+ 0.50002 1 2 cbr 500 ------- 0 0.0 2.0 78 78
- 0.50002 1 2 cbr 500 ------- 0 0.0 2.0 78 78
+ 0.505 0 1 cbr 500 ------- 0 0.0 2.0 81 81
- 0.505 0 1 cbr 500 ------- 0 0.0 2.0 81 81
r 0.50502 0 1 cbr 500 ------- 0 0.0 2.0 79 79
+ 0.50502 1 2 cbr 500 ------- 0 0.0 2.0 79 79
- 0.50502 1 2 cbr 500 ------- 0 0.0 2.0 79 79
+ 0.51 0 1 cbr 500 ------- 0 0.0 2.0 82 82
- 0.51 0 1 cbr 500 ------- 0 0.0 2.0 82 82
r 0.51002 0 1 cbr 500 ------- 0 0.0 2.0 80 80
+ 0.51002 1 2 cbr 500 ------- 0 0.0 2.0 80 80
- 0.51002 1 2 cbr 500 ------- 0 0.0 2.0 80 80
+ 0.515 0 1 cbr 500 ------- 0 0.0 2.0 83 83
- 0.515 0 1 cbr 500 ------- 0 0.0 2.0 83 83
r 0.51502 0 1 cbr 500 ------- 0 0.0 2.0 81 81
+ 0.51502 1 2 cbr 500 ------- 0 0.0 2.0 81 81
- 0.51502 1 2 cbr 500 ------- 0 0.0 2.0 81 81
+ 0.52 0 1 cbr 500 ------- 0 0.0 2.0 84 84
- 0.52 0 1 cbr 500 ------- 0 0.0 2.0 84 84
r 0.52002 0 1 cbr 500 ------- 0 0.0 2.0 82 82
+ 0.52002 1 2 cbr 500 ------- 0 0.0 2.0 82 82
- 0.52002 1 2 cbr 500 ------- 0 0.0 2.0 82 82
+ 0.525 0 1 cbr 500 ------- 0 0.0 2.0 85 85
- 0.525 0 1 cbr 500 ------- 0 0.0 2.0 85 85
r 0.52502 0 1 cbr 500 ------- 0 0.0 2.0 83 83
+ 0.52502 1 2 cbr 500 ------- 0 0.0 2.0 83 83
- 0.52502 1 2 cbr 500 ------- 0 0.0 2.0 83 83
+ 0.53 0 1 cbr 500 ------- 0 0.0 2.0 86 86
- 0.53 0 1 cbr 500 ------- 0 0.0 2.0 86 86
r 0.53002 0 1 cbr 500 ------- 0 0.0 2.0 84 84
+ 0.53002 1 2 cbr 500 ------- 0 0.0 2.0 84 84
- 0.53002 1 2 cbr 500 ------- 0 0.0 2.0 84 84
+ 0.535 0 1 cbr 500 ------- 0 0.0 2.0 87 87
- 0.535 0 1 cbr 500 ------- 0 0.0 2.0 87 87
r 0.53502 0 1 cbr 500 ------- 0 0.0 2.0 85 85
+ 0.53502 1 2 cbr 500 ------- 0 0.0 2.0 85 85
- 0.53502 1 2 cbr 500 ------- 0 0.0 2.0 85 85
+ 0.54 0 1 cbr 500 ------- 0 0.0 2.0 88 88
- 0.54 0 1 cbr 500 ------- 0 0.0 2.0 88 88
r 0.54002 0 1 cbr 500 ------- 0 0.0 2.0 86 86
+ 0.54002 1 2 cbr 500 ------- 0 0.0 2.0 86 86
- 0.54002 1 2 cbr 500 ------- 0 0.0 2.0 86 86
+ 0.545 0 1 cbr 500 ------- 0 0.0 2.0 89 89
- 0.545 0 1 cbr 500 ------- 0 0.0 2.0 89 89
r 0.54502 0 1 cbr 500 ------- 0 0.0 2.0 87 87
+ 0.54502 1 2 cbr 500 ------- 0 0.0 2.0 87 87
- 0.54502 1 2 cbr 500 ------- 0 0.0 2.0 87 87
+ 0.55 0 1 cbr 500 ------- 0 0.0 2.0 90 90
- 0.55 0 1 cbr 500 ------- 0 0.0 2.0 90 90
r 0.55002 0 1 cbr 500 ------- 0 0.0 2.0 88 88
+ 0.55002 1 2 cbr 500 ------- 0 0.0 2.0 88 88
- 0.55002 1 2 cbr 500 ------- 0 0.0 2.0 88 88
+ 0.555 0 1 cbr 500 ------- 0 0.0 2.0 91 91
- 0.555 0 1 cbr 500 ------- 0 0.0 2.0 91 91
r 0.55502 0 1 cbr 500 ------- 0 0.0 2.0 89 89
+ 0.55502 1 2 cbr 500 ------- 0 0.0 2.0 89 89
- 0.55502 1 2 cbr 500 ------- 0 0.0 2.0 89 89
+ 0.56 0 1 cbr 500 ------- 0 0.0 2.0 92 92
- 0.56 0 1 cbr 500 ------- 0 0.0 2.0 92 92
r 0.56002 0 1 cbr 500 ------- 0 0.0 2.0 90 90
+ 0.56002 1 2 cbr 500 ------- 0 0.0 2.0 90 90
- 0.56002 1 2 cbr 500 ------- 0 0.0 2.0 90 90
+ 0.565 0 1 cbr 500 ------- 0 0.0 2.0 93 93
- 0.565 0 1 cbr 500 ------- 0 0.0 2.0 93 93
r 0.56502 0 1 cbr 500 ------- 0 0.0 2.0 91 91
+ 0.56502 1 2 cbr 500 ------- 0 0.0 2.0 91 91
- 0.56502 1 2 cbr 500 ------- 0 0.0 2.0 91 91
+ 0.57 0 1 cbr 500 ------- 0 0.0 2.0 94 94
- 0.57 0 1 cbr 500 ------- 0 0.0 2.0 94 94
r 0.57002 0 1 cbr 500 ------- 0 0.0 2.0 92 92
+ 0.57002 1 2 cbr 500 ------- 0 0.0 2.0 92 92
- 0.57002 1 2 cbr 500 ------- 0 0.0 2.0 92 92
+ 0.575 0 1 cbr 500 ------- 0 0.0 2.0 95 95
- 0.575 0 1 cbr 500 ------- 0 0.0 2.0 95 95
r 0.57502 0 1 cbr 500 ------- 0 0.0 2.0 93 93
+ 0.57502 1 2 cbr 500 ------- 0 0.0 2.0 93 93
- 0.57502 1 2 cbr 500 ------- 0 0.0 2.0 93 93
+ 0.58 0 1 cbr 500 ------- 0 0.0 2.0 96 96
- 0.58 0 1 cbr 500 ------- 0 0.0 2.0 96 96
r 0.58002 0 1 cbr 500 ------- 0 0.0 2.0 94 94
+ 0.58002 1 2 cbr 500 ------- 0 0.0 2.0 94 94
- 0.58002 1 2 cbr 500 ------- 0 0.0 2.0 94 94
+ 0.585 0 1 cbr 500 ------- 0 0.0 2.0 97 97
- 0.585 0 1 cbr 500 ------- 0 0.0 2.0 97 97
r 0.58502 0 1 cbr 500 ------- 0 0.0 2.0 95 95
+ 0.58502 1 2 cbr 500 ------- 0 0.0 2.0 95 95
- 0.58502 1 2 cbr 500 ------- 0 0.0 2.0 95 95
+ 0.59 0 1 cbr 500 ------- 0 0.0 2.0 98 98
- 0.59 0 1 cbr 500 ------- 0 0.0 2.0 98 98
r 0.59002 0 1 cbr 500 ------- 0 0.0 2.0 96 96
+ 0.59002 1 2 cbr 500 ------- 0 0.0 2.0 96 96
- 0.59002 1 2 cbr 500 ------- 0 0.0 2.0 96 96
+ 0.595 0 1 cbr 500 ------- 0 0.0 2.0 99 99
- 0.595 0 1 cbr 500 ------- 0 0.0 2.0 99 99
r 0.59502 0 1 cbr 500 ------- 0 0.0 2.0 97 97
+ 0.59502 1 2 cbr 500 ------- 0 0.0 2.0 97 97
- 0.59502 1 2 cbr 500 ------- 0 0.0 2.0 97 97
+ 0.6 0 1 cbr 500 ------- 0 0.0 2.0 100 100
- 0.6 0 1 cbr 500 ------- 0 0.0 2.0 100 100
r 0.60002 0 1 cbr 500 ------- 0 0.0 2.0 98 98
+ 0.60002 1 2 cbr 500 ------- 0 0.0 2.0 98 98
- 0.60002 1 2 cbr 500 ------- 0 0.0 2.0 98 98
+ 0.605 0 1 cbr 500 ------- 0 0.0 2.0 101 101
- 0.605 0 1 cbr 500 ------- 0 0.0 2.0 101 101
r 0.60502 0 1 cbr 500 ------- 0 0.0 2.0 99 99
+ 0.60502 1 2 cbr 500 ------- 0 0.0 2.0 99 99
- 0.60502 1 2 cbr 500 ------- 0 0.0 2.0 99 99
+ 0.61 0 1 cbr 500 ------- 0 0.0 2.0 102 102
- 0.61 0 1 cbr 500 ------- 0 0.0 2.0 102 102
r 0.61002 0 1 cbr 500 ------- 0 0.0 2.0 100 100
+ 0.61002 1 2 cbr 500 ------- 0 0.0 2.0 100 100
- 0.61002 1 2 cbr 500 ------- 0 0.0 2.0 100 100
+ 0.615 0 1 cbr 500 ------- 0 0.0 2.0 103 103
- 0.615 0 1 cbr 500 ------- 0 0.0 2.0 103 103
r 0.61502 0 1 cbr 500 ------- 0 0.0 2.0 101 101
+ 0.61502 1 2 cbr 500 ------- 0 0.0 2.0 101 101
- 0.61502 1 2 cbr 500 ------- 0 0.0 2.0 101 101
+ 0.62 0 1 cbr 500 ------- 0 0.0 2.0 104 104
- 0.62 0 1 cbr 500 ------- 0 0.0 2.0 104 104
r 0.62002 0 1 cbr 500 ------- 0 0.0 2.0 102 102
+ 0.62002 1 2 cbr 500 ------- 0 0.0 2.0 102 102
- 0.62002 1 2 cbr 500 ------- 0 0.0 2.0 102 102
+ 0.625 0 1 cbr 500 ------- 0 0.0 2.0 105 105
- 0.625 0 1 cbr 500 ------- 0 0.0 2.0 105 105
r 0.62502 0 1 cbr 500 ------- 0 0.0 2.0 103 103
+ 0.62502 1 2 cbr 500 ------- 0 0.0 2.0 103 103
- 0.62502 1 2 cbr 500 ------- 0 0.0 2.0 103 103
+ 0.63 0 1 cbr 500 ------- 0 0.0 2.0 106 106
- 0.63 0 1 cbr 500 ------- 0 0.0 2.0 106 106
r 0.63002 0 1 cbr 500 ------- 0 0.0 2.0 104 104
+ 0.63002 1 2 cbr 500 ------- 0 0.0 2.0 104 104
- 0.63002 1 2 cbr 500 ------- 0 0.0 2.0 104 104
+ 0.635 0 1 cbr 500 ------- 0 0.0 2.0 107 107
- 0.635 0 1 cbr 500 ------- 0 0.0 2.0 107 107
r 0.63502 0 1 cbr 500 ------- 0 0.0 2.0 105 105
+ 0.63502 1 2 cbr 500 ------- 0 0.0 2.0 105 105
- 0.63502 1 2 cbr 500 ------- 0 0.0 2.0 105 105
+ 0.64 0 1 cbr 500 ------- 0 0.0 2.0 108 108
- 0.64 0 1 cbr 500 ------- 0 0.0 2.0 108 108
r 0.64002 0 1 cbr 500 ------- 0 0.0 2.0 106 106
+ 0.64002 1 2 cbr 500 ------- 0 0.0 2.0 106 106
- 0.64002 1 2 cbr 500 ------- 0 0.0 2.0 106 106
+ 0.645 0 1 cbr 500 ------- 0 0.0 2.0 109 109
- 0.645 0 1 cbr 500 ------- 0 0.0 2.0 109 109
r 0.64502 0 1 cbr 500 ------- 0 0.0 2.0 107 107
+ 0.64502 1 2 cbr 500 ------- 0 0.0 2.0 107 107
- 0.64502 1 2 cbr 500 ------- 0 0.0 2.0 107 107
+ 0.65 0 1 cbr 500 ------- 0 0.0 2.0 110 110
- 0.65 0 1 cbr 500 ------- 0 0.0 2.0 110 110
r 0.65002 0 1 cbr 500 ------- 0 0.0 2.0 108 108
+ 0.65002 1 2 cbr 500 ------- 0 0.0 2.0 108 108
- 0.65002 1 2 cbr 500 ------- 0 0.0 2.0 108 108
+ 0.655 0 1 cbr 500 ------- 0 0.0 2.0 111 111
- 0.655 0 1 cbr 500 ------- 0 0.0 2.0 111 111
r 0.65502 0 1 cbr 500 ------- 0 0.0 2.0 109 109
+ 0.65502 1 2 cbr 500 ------- 0 0.0 2.0 109 109
- 0.65502 1 2 cbr 500 ------- 0 0.0 2.0 109 109
+ 0.66 0 1 cbr 500 ------- 0 0.0 2.0 112 112
- 0.66 0 1 cbr 500 ------- 0 0.0 2.0 112 112
r 0.66002 0 1 cbr 500 ------- 0 0.0 2.0 110 110
+ 0.66002 1 2 cbr 500 ------- 0 0.0 2.0 110 110
- 0.66002 1 2 cbr 500 ------- 0 0.0 2.0 110 110
+ 0.665 0 1 cbr 500 ------- 0 0.0 2.0 113 113
- 0.665 0 1 cbr 500 ------- 0 0.0 2.0 113 113
r 0.66502 0 1 cbr 500 ------- 0 0.0 2.0 111 111
+ 0.66502 1 2 cbr 500 ------- 0 0.0 2.0 111 111
- 0.66502 1 2 cbr 500 ------- 0 0.0 2.0 111 111
+ 0.67 0 1 cbr 500 ------- 0 0.0 2.0 114 114
- 0.67 0 1 cbr 500 ------- 0 0.0 2.0 114 114
r 0.67002 0 1 cbr 500 ------- 0 0.0 2.0 112 112
+ 0.67002 1 2 cbr 500 ------- 0 0.0 2.0 112 112
- 0.67002 1 2 cbr 500 ------- 0 0.0 2.0 112 112
+ 0.675 0 1 cbr 500 ------- 0 0.0 2.0 115 115
- 0.675 0 1 cbr 500 ------- 0 0.0 2.0 115 115
r 0.67502 0 1 cbr 500 ------- 0 0.0 2.0 113 113
+ 0.67502 1 2 cbr 500 ------- 0 0.0 2.0 113 113
- 0.67502 1 2 cbr 500 ------- 0 0.0 2.0 113 113
+ 0.68 0 1 cbr 500 ------- 0 0.0 2.0 116 116
- 0.68 0 1 cbr 500 ------- 0 0.0 2.0 116 116
r 0.68002 0 1 cbr 500 ------- 0 0.0 2.0 114 114
+ 0.68002 1 2 cbr 500 ------- 0 0.0 2.0 114 114
- 0.68002 1 2 cbr 500 ------- 0 0.0 2.0 114 114
+ 0.685 0 1 cbr 500 ------- 0 0.0 2.0 117 117
- 0.685 0 1 cbr 500 ------- 0 0.0 2.0 117 117
r 0.68502 0 1 cbr 500 ------- 0 0.0 2.0 115 115
+ 0.68502 1 2 cbr 500 ------- 0 0.0 2.0 115 115
- 0.68502 1 2 cbr 500 ------- 0 0.0 2.0 115 115
+ 0.69 0 1 cbr 500 ------- 0 0.0 2.0 118 118
- 0.69 0 1 cbr 500 ------- 0 0.0 2.0 118 118
r 0.69002 0 1 cbr 500 ------- 0 0.0 2.0 116 116
+ 0.69002 1 2 cbr 500 ------- 0 0.0 2.0 116 116
- 0.69002 1 2 cbr 500 ------- 0 0.0 2.0 116 116
+ 0.695 0 1 cbr 500 ------- 0 0.0 2.0 119 119
- 0.695 0 1 cbr 500 ------- 0 0.0 2.0 119 119
r 0.69502 0 1 cbr 500 ------- 0 0.0 2.0 117 117
+ 0.69502 1 2 cbr 500 ------- 0 0.0 2.0 117 117
- 0.69502 1 2 cbr 500 ------- 0 0.0 2.0 117 117
+ 0.7 0 1 cbr 500 ------- 0 0.0 2.0 120 120
- 0.7 0 1 cbr 500 ------- 0 0.0 2.0 120 120
r 0.70002 0 1 cbr 500 ------- 0 0.0 2.0 118 118
+ 0.70002 1 2 cbr 500 ------- 0 0.0 2.0 118 118
- 0.70002 1 2 cbr 500 ------- 0 0.0 2.0 118 118
+ 0.705 0 1 cbr 500 ------- 0 0.0 2.0 121 121
- 0.705 0 1 cbr 500 ------- 0 0.0 2.0 121 121
r 0.70502 0 1 cbr 500 ------- 0 0.0 2.0 119 119
+ 0.70502 1 2 cbr 500 ------- 0 0.0 2.0 119 119
- 0.70502 1 2 cbr 500 ------- 0 0.0 2.0 119 119
+ 0.71 0 1 cbr 500 ------- 0 0.0 2.0 122 122
- 0.71 0 1 cbr 500 ------- 0 0.0 2.0 122 122
r 0.71002 0 1 cbr 500 ------- 0 0.0 2.0 120 120
+ 0.71002 1 2 cbr 500 ------- 0 0.0 2.0 120 120
- 0.71002 1 2 cbr 500 ------- 0 0.0 2.0 120 120
+ 0.715 0 1 cbr 500 ------- 0 0.0 2.0 123 123
- 0.715 0 1 cbr 500 ------- 0 0.0 2.0 123 123
r 0.71502 0 1 cbr 500 ------- 0 0.0 2.0 121 121
+ 0.71502 1 2 cbr 500 ------- 0 0.0 2.0 121 121
- 0.71502 1 2 cbr 500 ------- 0 0.0 2.0 121 121
+ 0.72 0 1 cbr 500 ------- 0 0.0 2.0 124 124
- 0.72 0 1 cbr 500 ------- 0 0.0 2.0 124 124
r 0.72002 0 1 cbr 500 ------- 0 0.0 2.0 122 122
+ 0.72002 1 2 cbr 500 ------- 0 0.0 2.0 122 122
- 0.72002 1 2 cbr 500 ------- 0 0.0 2.0 122 122
+ 0.725 0 1 cbr 500 ------- 0 0.0 2.0 125 125
- 0.725 0 1 cbr 500 ------- 0 0.0 2.0 125 125
r 0.72502 0 1 cbr 500 ------- 0 0.0 2.0 123 123
+ 0.72502 1 2 cbr 500 ------- 0 0.0 2.0 123 123
- 0.72502 1 2 cbr 500 ------- 0 0.0 2.0 123 123
+ 0.73 0 1 cbr 500 ------- 0 0.0 2.0 126 126
- 0.73 0 1 cbr 500 ------- 0 0.0 2.0 126 126
r 0.73002 0 1 cbr 500 ------- 0 0.0 2.0 124 124
+ 0.73002 1 2 cbr 500 ------- 0 0.0 2.0 124 124
- 0.73002 1 2 cbr 500 ------- 0 0.0 2.0 124 124
+ 0.735 0 1 cbr 500 ------- 0 0.0 2.0 127 127
- 0.735 0 1 cbr 500 ------- 0 0.0 2.0 127 127
r 0.73502 0 1 cbr 500 ------- 0 0.0 2.0 125 125
+ 0.73502 1 2 cbr 500 ------- 0 0.0 2.0 125 125
- 0.73502 1 2 cbr 500 ------- 0 0.0 2.0 125 125
+ 0.74 0 1 cbr 500 ------- 0 0.0 2.0 128 128
- 0.74 0 1 cbr 500 ------- 0 0.0 2.0 128 128
r 0.74002 0 1 cbr 500 ------- 0 0.0 2.0 126 126
+ 0.74002 1 2 cbr 500 ------- 0 0.0 2.0 126 126
- 0.74002 1 2 cbr 500 ------- 0 0.0 2.0 126 126
+ 0.745 0 1 cbr 500 ------- 0 0.0 2.0 129 129
- 0.745 0 1 cbr 500 ------- 0 0.0 2.0 129 129
r 0.74502 0 1 cbr 500 ------- 0 0.0 2.0 127 127
+ 0.74502 1 2 cbr 500 ------- 0 0.0 2.0 127 127
- 0.74502 1 2 cbr 500 ------- 0 0.0 2.0 127 127
+ 0.75 0 1 cbr 500 ------- 0 0.0 2.0 130 130
- 0.75 0 1 cbr 500 ------- 0 0.0 2.0 130 130
r 0.75002 0 1 cbr 500 ------- 0 0.0 2.0 128 128
+ 0.75002 1 2 cbr 500 ------- 0 0.0 2.0 128 128
- 0.75002 1 2 cbr 500 ------- 0 0.0 2.0 128 128
+ 0.755 0 1 cbr 500 ------- 0 0.0 2.0 131 131
- 0.755 0 1 cbr 500 ------- 0 0.0 2.0 131 131
r 0.75502 0 1 cbr 500 ------- 0 0.0 2.0 129 129
+ 0.75502 1 2 cbr 500 ------- 0 0.0 2.0 129 129
- 0.75502 1 2 cbr 500 ------- 0 0.0 2.0 129 129
+ 0.76 0 1 cbr 500 ------- 0 0.0 2.0 132 132
- 0.76 0 1 cbr 500 ------- 0 0.0 2.0 132 132
r 0.76002 0 1 cbr 500 ------- 0 0.0 2.0 130 130
+ 0.76002 1 2 cbr 500 ------- 0 0.0 2.0 130 130
- 0.76002 1 2 cbr 500 ------- 0 0.0 2.0 130 130
+ 0.765 0 1 cbr 500 ------- 0 0.0 2.0 133 133
- 0.765 0 1 cbr 500 ------- 0 0.0 2.0 133 133
r 0.76502 0 1 cbr 500 ------- 0 0.0 2.0 131 131