+ 1 0 1 tcp 40 ------- 4 0.0 2.0 0 0
- 1 0 1 tcp 40 ------- 4 0.0 2.0 0 0
r 1.05016 0 1 tcp 40 ------- 4 0.0 2.0 0 0
+ 1.05016 1 2 tcp 40 ------- 4 0.0 2.0 0 0
- 1.05016 1 2 tcp 40 ------- 4 0.0 2.0 0 0
r 1.10032 1 2 tcp 40 ------- 4 0.0 2.0 0 0
+ 1.10032 2 1 ack 40 ------- 4 2.0 0.0 0 1
- 1.10032 2 1 ack 40 ------- 4 2.0 0.0 0 1
r 1.15048 2 1 ack 40 ------- 4 2.0 0.0 0 1
+ 1.15048 1 0 ack 40 ------- 4 2.0 0.0 0 1
- 1.15048 1 0 ack 40 ------- 4 2.0 0.0 0 1
r 1.20064 1 0 ack 40 ------- 4 2.0 0.0 0 1
+ 1.20064 0 1 tcp 1040 ------- 4 0.0 2.0 1 2
- 1.20064 0 1 tcp 1040 ------- 4 0.0 2.0 1 2
+ 1.20064 0 1 tcp 1040 ------- 4 0.0 2.0 2 3
- 1.2048 0 1 tcp 1040 ------- 4 0.0 2.0 2 3
r 1.2548 0 1 tcp 1040 ------- 4 0.0 2.0 1 2
+ 1.2548 1 2 tcp 1040 ------- 4 0.0 2.0 1 2
- 1.2548 1 2 tcp 1040 ------- 4 0.0 2.0 1 2
r 1.25896 0 1 tcp 1040 ------- 4 0.0 2.0 2 3
+ 1.25896 1 2 tcp 1040 ------- 4 0.0 2.0 2 3
- 1.25896 1 2 tcp 1040 ------- 4 0.0 2.0 2 3
r 1.30896 1 2 tcp 1040 ------- 4 0.0 2.0 1 2
+ 1.30896 2 1 ack 40 ------- 4 2.0 0.0 1 4
- 1.30896 2 1 ack 40 ------- 4 2.0 0.0 1 4
r 1.31312 1 2 tcp 1040 ------- 4 0.0 2.0 2 3
+ 1.31312 2 1 ack 40 ------- 4 2.0 0.0 2 5
- 1.31312 2 1 ack 40 ------- 4 2.0 0.0 2 5
r 1.35912 2 1 ack 40 ------- 4 2.0 0.0 1 4
+ 1.35912 1 0 ack 40 ------- 4 2.0 0.0 1 4
- 1.35912 1 0 ack 40 ------- 4 2.0 0.0 1 4
r 1.36328 2 1 ack 40 ------- 4 2.0 0.0 2 5
+ 1.36328 1 0 ack 40 ------- 4 2.0 0.0 2 5
- 1.36328 1 0 ack 40 ------- 4 2.0 0.0 2 5
r 1.40928 1 0 ack 40 ------- 4 2.0 0.0 1 4
+ 1.40928 0 1 tcp 1040 ------- 4 0.0 2.0 3 6
- 1.40928 0 1 tcp 1040 ------- 4 0.0 2.0 3 6
+ 1.40928 0 1 tcp 1040 ------- 4 0.0 2.0 4 7
r 1.41344 1 0 ack 40 ------- 4 2.0 0.0 2 5
+ 1.41344 0 1 tcp 1040 ------- 4 0.0 2.0 5 8
+ 1.41344 0 1 tcp 1040 ------- 4 0.0 2.0 6 9
- 1.41344 0 1 tcp 1040 ------- 4 0.0 2.0 4 7
- 1.4176 0 1 tcp 1040 ------- 4 0.0 2.0 5 8
- 1.42176 0 1 tcp 1040 ------- 4 0.0 2.0 6 9
r 1.46344 0 1 tcp 1040 ------- 4 0.0 2.0 3 6
+ 1.46344 1 2 tcp 1040 ------- 4 0.0 2.0 3 6
- 1.46344 1 2 tcp 1040 ------- 4 0.0 2.0 3 6
r 1.4676 0 1 tcp 1040 ------- 4 0.0 2.0 4 7
+ 1.4676 1 2 tcp 1040 ------- 4 0.0 2.0 4 7
- 1.4676 1 2 tcp 1040 ------- 4 0.0 2.0 4 7
r 1.47176 0 1 tcp 1040 ------- 4 0.0 2.0 5 8
+ 1.47176 1 2 tcp 1040 ------- 4 0.0 2.0 5 8
- 1.47176 1 2 tcp 1040 ------- 4 0.0 2.0 5 8
r 1.47592 0 1 tcp 1040 ------- 4 0.0 2.0 6 9
+ 1.47592 1 2 tcp 1040 ------- 4 0.0 2.0 6 9
- 1.47592 1 2 tcp 1040 ------- 4 0.0 2.0 6 9
r 1.5176 1 2 tcp 1040 ------- 4 0.0 2.0 3 6
+ 1.5176 2 1 ack 40 ------- 4 2.0 0.0 3 10
- 1.5176 2 1 ack 40 ------- 4 2.0 0.0 3 10
r 1.52176 1 2 tcp 1040 ------- 4 0.0 2.0 4 7
+ 1.52176 2 1 ack 40 ------- 4 2.0 0.0 4 11
- 1.52176 2 1 ack 40 ------- 4 2.0 0.0 4 11
r 1.52592 1 2 tcp 1040 ------- 4 0.0 2.0 5 8
+ 1.52592 2 1 ack 40 ------- 4 2.0 0.0 5 12
- 1.52592 2 1 ack 40 ------- 4 2.0 0.0 5 12
r 1.53008 1 2 tcp 1040 ------- 4 0.0 2.0 6 9
+ 1.53008 2 1 ack 40 ------- 4 2.0 0.0 6 13
- 1.53008 2 1 ack 40 ------- 4 2.0 0.0 6 13
r 1.56776 2 1 ack 40 ------- 4 2.0 0.0 3 10
+ 1.56776 1 0 ack 40 ------- 4 2.0 0.0 3 10
- 1.56776 1 0 ack 40 ------- 4 2.0 0.0 3 10
r 1.57192 2 1 ack 40 ------- 4 2.0 0.0 4 11
+ 1.57192 1 0 ack 40 ------- 4 2.0 0.0 4 11
- 1.57192 1 0 ack 40 ------- 4 2.0 0.0 4 11
r 1.57608 2 1 ack 40 ------- 4 2.0 0.0 5 12
+ 1.57608 1 0 ack 40 ------- 4 2.0 0.0 5 12
- 1.57608 1 0 ack 40 ------- 4 2.0 0.0 5 12
r 1.58024 2 1 ack 40 ------- 4 2.0 0.0 6 13
+ 1.58024 1 0 ack 40 ------- 4 2.0 0.0 6 13
- 1.58024 1 0 ack 40 ------- 4 2.0 0.0 6 13
r 1.61792 1 0 ack 40 ------- 4 2.0 0.0 3 10
+ 1.61792 0 1 tcp 1040 ------- 4 0.0 2.0 7 14
- 1.61792 0 1 tcp 1040 ------- 4 0.0 2.0 7 14
+ 1.61792 0 1 tcp 1040 ------- 4 0.0 2.0 8 15
r 1.62208 1 0 ack 40 ------- 4 2.0 0.0 4 11
+ 1.62208 0 1 tcp 1040 ------- 4 0.0 2.0 9 16
+ 1.62208 0 1 tcp 1040 ------- 4 0.0 2.0 10 17
- 1.62208 0 1 tcp 1040 ------- 4 0.0 2.0 8 15
r 1.62624 1 0 ack 40 ------- 4 2.0 0.0 5 12
+ 1.62624 0 1 tcp 1040 ------- 4 0.0 2.0 11 18
+ 1.62624 0 1 tcp 1040 ------- 4 0.0 2.0 12 19
- 1.62624 0 1 tcp 1040 ------- 4 0.0 2.0 9 16
r 1.6304 1 0 ack 40 ------- 4 2.0 0.0 6 13
+ 1.6304 0 1 tcp 1040 ------- 4 0.0 2.0 13 20
+ 1.6304 0 1 tcp 1040 ------- 4 0.0 2.0 14 21
- 1.6304 0 1 tcp 1040 ------- 4 0.0 2.0 10 17
- 1.63456 0 1 tcp 1040 ------- 4 0.0 2.0 11 18
- 1.63872 0 1 tcp 1040 ------- 4 0.0 2.0 12 19
- 1.64288 0 1 tcp 1040 ------- 4 0.0 2.0 13 20
- 1.64704 0 1 tcp 1040 ------- 4 0.0 2.0 14 21
r 1.67208 0 1 tcp 1040 ------- 4 0.0 2.0 7 14
+ 1.67208 1 2 tcp 1040 ------- 4 0.0 2.0 7 14
- 1.67208 1 2 tcp 1040 ------- 4 0.0 2.0 7 14
r 1.67624 0 1 tcp 1040 ------- 4 0.0 2.0 8 15
+ 1.67624 1 2 tcp 1040 ------- 4 0.0 2.0 8 15
- 1.67624 1 2 tcp 1040 ------- 4 0.0 2.0 8 15
r 1.6804 0 1 tcp 1040 ------- 4 0.0 2.0 9 16
+ 1.6804 1 2 tcp 1040 ------- 4 0.0 2.0 9 16
- 1.6804 1 2 tcp 1040 ------- 4 0.0 2.0 9 16
r 1.68456 0 1 tcp 1040 ------- 4 0.0 2.0 10 17
+ 1.68456 1 2 tcp 1040 ------- 4 0.0 2.0 10 17
- 1.68456 1 2 tcp 1040 ------- 4 0.0 2.0 10 17
r 1.68872 0 1 tcp 1040 ------- 4 0.0 2.0 11 18
+ 1.68872 1 2 tcp 1040 ------- 4 0.0 2.0 11 18
- 1.68872 1 2 tcp 1040 ------- 4 0.0 2.0 11 18
r 1.69288 0 1 tcp 1040 ------- 4 0.0 2.0 12 19
+ 1.69288 1 2 tcp 1040 ------- 4 0.0 2.0 12 19
- 1.69288 1 2 tcp 1040 ------- 4 0.0 2.0 12 19
r 1.69704 0 1 tcp 1040 ------- 4 0.0 2.0 13 20
+ 1.69704 1 2 tcp 1040 ------- 4 0.0 2.0 13 20
- 1.69704 1 2 tcp 1040 ------- 4 0.0 2.0 13 20
r 1.7012 0 1 tcp 1040 ------- 4 0.0 2.0 14 21
+ 1.7012 1 2 tcp 1040 ------- 4 0.0 2.0 14 21
- 1.7012 1 2 tcp 1040 ------- 4 0.0 2.0 14 21
r 1.72624 1 2 tcp 1040 ------- 4 0.0 2.0 7 14
+ 1.72624 2 1 ack 40 ------- 4 2.0 0.0 7 22
- 1.72624 2 1 ack 40 ------- 4 2.0 0.0 7 22
r 1.7304 1 2 tcp 1040 ------- 4 0.0 2.0 8 15
+ 1.7304 2 1 ack 40 ------- 4 2.0 0.0 8 23
- 1.7304 2 1 ack 40 ------- 4 2.0 0.0 8 23
r 1.73456 1 2 tcp 1040 ------- 4 0.0 2.0 9 16
+ 1.73456 2 1 ack 40 ------- 4 2.0 0.0 9 24
- 1.73456 2 1 ack 40 ------- 4 2.0 0.0 9 24
r 1.73872 1 2 tcp 1040 ------- 4 0.0 2.0 10 17
+ 1.73872 2 1 ack 40 ------- 4 2.0 0.0 10 25
- 1.73872 2 1 ack 40 ------- 4 2.0 0.0 10 25
r 1.74288 1 2 tcp 1040 ------- 4 0.0 2.0 11 18
+ 1.74288 2 1 ack 40 ------- 4 2.0 0.0 11 26
- 1.74288 2 1 ack 40 ------- 4 2.0 0.0 11 26
r 1.74704 1 2 tcp 1040 ------- 4 0.0 2.0 12 19
+ 1.74704 2 1 ack 40 ------- 4 2.0 0.0 12 27
- 1.74704 2 1 ack 40 ------- 4 2.0 0.0 12 27
r 1.7512 1 2 tcp 1040 ------- 4 0.0 2.0 13 20
+ 1.7512 2 1 ack 40 ------- 4 2.0 0.0 13 28
- 1.7512 2 1 ack 40 ------- 4 2.0 0.0 13 28
r 1.75536 1 2 tcp 1040 ------- 4 0.0 2.0 14 21
+ 1.75536 2 1 ack 40 ------- 4 2.0 0.0 14 29
- 1.75536 2 1 ack 40 ------- 4 2.0 0.0 14 29
r 1.7764 2 1 ack 40 ------- 4 2.0 0.0 7 22
+ 1.7764 1 0 ack 40 ------- 4 2.0 0.0 7 22
- 1.7764 1 0 ack 40 ------- 4 2.0 0.0 7 22
r 1.78056 2 1 ack 40 ------- 4 2.0 0.0 8 23
+ 1.78056 1 0 ack 40 ------- 4 2.0 0.0 8 23
- 1.78056 1 0 ack 40 ------- 4 2.0 0.0 8 23
r 1.78472 2 1 ack 40 ------- 4 2.0 0.0 9 24
+ 1.78472 1 0 ack 40 ------- 4 2.0 0.0 9 24
- 1.78472 1 0 ack 40 ------- 4 2.0 0.0 9 24
r 1.78888 2 1 ack 40 ------- 4 2.0 0.0 10 25
+ 1.78888 1 0 ack 40 ------- 4 2.0 0.0 10 25
- 1.78888 1 0 ack 40 ------- 4 2.0 0.0 10 25
r 1.79304 2 1 ack 40 ------- 4 2.0 0.0 11 26
+ 1.79304 1 0 ack 40 ------- 4 2.0 0.0 11 26
- 1.79304 1 0 ack 40 ------- 4 2.0 0.0 11 26
r 1.7972 2 1 ack 40 ------- 4 2.0 0.0 12 27
+ 1.7972 1 0 ack 40 ------- 4 2.0 0.0 12 27
- 1.7972 1 0 ack 40 ------- 4 2.0 0.0 12 27
r 1.80136 2 1 ack 40 ------- 4 2.0 0.0 13 28
+ 1.80136 1 0 ack 40 ------- 4 2.0 0.0 13 28
- 1.80136 1 0 ack 40 ------- 4 2.0 0.0 13 28
r 1.80552 2 1 ack 40 ------- 4 2.0 0.0 14 29
+ 1.80552 1 0 ack 40 ------- 4 2.0 0.0 14 29
- 1.80552 1 0 ack 40 ------- 4 2.0 0.0 14 29
r 1.82656 1 0 ack 40 ------- 4 2.0 0.0 7 22
+ 1.82656 0 1 tcp 1040 ------- 4 0.0 2.0 15 30
- 1.82656 0 1 tcp 1040 ------- 4 0.0 2.0 15 30
+ 1.82656 0 1 tcp 1040 ------- 4 0.0 2.0 16 31
r 1.83072 1 0 ack 40 ------- 4 2.0 0.0 8 23
+ 1.83072 0 1 tcp 1040 ------- 4 0.0 2.0 17 32
+ 1.83072 0 1 tcp 1040 ------- 4 0.0 2.0 18 33
- 1.83072 0 1 tcp 1040 ------- 4 0.0 2.0 16 31
r 1.83488 1 0 ack 40 ------- 4 2.0 0.0 9 24
+ 1.83488 0 1 tcp 1040 ------- 4 0.0 2.0 19 34
+ 1.83488 0 1 tcp 1040 ------- 4 0.0 2.0 20 35
- 1.83488 0 1 tcp 1040 ------- 4 0.0 2.0 17 32
r 1.83904 1 0 ack 40 ------- 4 2.0 0.0 10 25
+ 1.83904 0 1 tcp 1040 ------- 4 0.0 2.0 21 36
+ 1.83904 0 1 tcp 1040 ------- 4 0.0 2.0 22 37
- 1.83904 0 1 tcp 1040 ------- 4 0.0 2.0 18 33
r 1.8432 1 0 ack 40 ------- 4 2.0 0.0 11 26
+ 1.8432 0 1 tcp 1040 ------- 4 0.0 2.0 23 38
+ 1.8432 0 1 tcp 1040 ------- 4 0.0 2.0 24 39
- 1.8432 0 1 tcp 1040 ------- 4 0.0 2.0 19 34
r 1.84736 1 0 ack 40 ------- 4 2.0 0.0 12 27
+ 1.84736 0 1 tcp 1040 ------- 4 0.0 2.0 25 40
+ 1.84736 0 1 tcp 1040 ------- 4 0.0 2.0 26 41
- 1.84736 0 1 tcp 1040 ------- 4 0.0 2.0 20 35
r 1.85152 1 0 ack 40 ------- 4 2.0 0.0 13 28
+ 1.85152 0 1 tcp 1040 ------- 4 0.0 2.0 27 42
+ 1.85152 0 1 tcp 1040 ------- 4 0.0 2.0 28 43
- 1.85152 0 1 tcp 1040 ------- 4 0.0 2.0 21 36
r 1.85568 1 0 ack 40 ------- 4 2.0 0.0 14 29
+ 1.85568 0 1 tcp 1040 ------- 4 0.0 2.0 29 44
+ 1.85568 0 1 tcp 1040 ------- 4 0.0 2.0 30 45
- 1.85568 0 1 tcp 1040 ------- 4 0.0 2.0 22 37
- 1.85984 0 1 tcp 1040 ------- 4 0.0 2.0 23 38
- 1.864 0 1 tcp 1040 ------- 4 0.0 2.0 24 39
- 1.86816 0 1 tcp 1040 ------- 4 0.0 2.0 25 40
- 1.87232 0 1 tcp 1040 ------- 4 0.0 2.0 26 41
- 1.87648 0 1 tcp 1040 ------- 4 0.0 2.0 27 42
- 1.88064 0 1 tcp 1040 ------- 4 0.0 2.0 28 43
r 1.88072 0 1 tcp 1040 ------- 4 0.0 2.0 15 30
+ 1.88072 1 2 tcp 1040 ------- 4 0.0 2.0 15 30
- 1.88072 1 2 tcp 1040 ------- 4 0.0 2.0 15 30
- 1.8848 0 1 tcp 1040 ------- 4 0.0 2.0 29 44
r 1.88488 0 1 tcp 1040 ------- 4 0.0 2.0 16 31
+ 1.88488 1 2 tcp 1040 ------- 4 0.0 2.0 16 31
- 1.88488 1 2 tcp 1040 ------- 4 0.0 2.0 16 31
- 1.88896 0 1 tcp 1040 ------- 4 0.0 2.0 30 45
r 1.88904 0 1 tcp 1040 ------- 4 0.0 2.0 17 32
+ 1.88904 1 2 tcp 1040 ------- 4 0.0 2.0 17 32
- 1.88904 1 2 tcp 1040 ------- 4 0.0 2.0 17 32
r 1.8932 0 1 tcp 1040 ------- 4 0.0 2.0 18 33
+ 1.8932 1 2 tcp 1040 ------- 4 0.0 2.0 18 33
- 1.8932 1 2 tcp 1040 ------- 4 0.0 2.0 18 33
r 1.89736 0 1 tcp 1040 ------- 4 0.0 2.0 19 34
+ 1.89736 1 2 tcp 1040 ------- 4 0.0 2.0 19 34
- 1.89736 1 2 tcp 1040 ------- 4 0.0 2.0 19 34
r 1.90152 0 1 tcp 1040 ------- 4 0.0 2.0 20 35
+ 1.90152 1 2 tcp 1040 ------- 4 0.0 2.0 20 35
- 1.90152 1 2 tcp 1040 ------- 4 0.0 2.0 20 35
r 1.90568 0 1 tcp 1040 ------- 4 0.0 2.0 21 36
+ 1.90568 1 2 tcp 1040 ------- 4 0.0 2.0 21 36
- 1.90568 1 2 tcp 1040 ------- 4 0.0 2.0 21 36
r 1.90984 0 1 tcp 1040 ------- 4 0.0 2.0 22 37
+ 1.90984 1 2 tcp 1040 ------- 4 0.0 2.0 22 37
- 1.90984 1 2 tcp 1040 ------- 4 0.0 2.0 22 37
r 1.914 0 1 tcp 1040 ------- 4 0.0 2.0 23 38
+ 1.914 1 2 tcp 1040 ------- 4 0.0 2.0 23 38
- 1.914 1 2 tcp 1040 ------- 4 0.0 2.0 23 38
r 1.91816 0 1 tcp 1040 ------- 4 0.0 2.0 24 39
+ 1.91816 1 2 tcp 1040 ------- 4 0.0 2.0 24 39
- 1.91816 1 2 tcp 1040 ------- 4 0.0 2.0 24 39
r 1.92232 0 1 tcp 1040 ------- 4 0.0 2.0 25 40
+ 1.92232 1 2 tcp 1040 ------- 4 0.0 2.0 25 40
- 1.92232 1 2 tcp 1040 ------- 4 0.0 2.0 25 40
r 1.92648 0 1 tcp 1040 ------- 4 0.0 2.0 26 41
+ 1.92648 1 2 tcp 1040 ------- 4 0.0 2.0 26 41
- 1.92648 1 2 tcp 1040 ------- 4 0.0 2.0 26 41
r 1.93064 0 1 tcp 1040 ------- 4 0.0 2.0 27 42
+ 1.93064 1 2 tcp 1040 ------- 4 0.0 2.0 27 42
- 1.93064 1 2 tcp 1040 ------- 4 0.0 2.0 27 42
r 1.9348 0 1 tcp 1040 ------- 4 0.0 2.0 28 43
+ 1.9348 1 2 tcp 1040 ------- 4 0.0 2.0 28 43
- 1.9348 1 2 tcp 1040 ------- 4 0.0 2.0 28 43
r 1.93488 1 2 tcp 1040 ------- 4 0.0 2.0 15 30
+ 1.93488 2 1 ack 40 ------- 4 2.0 0.0 15 46
- 1.93488 2 1 ack 40 ------- 4 2.0 0.0 15 46
r 1.93896 0 1 tcp 1040 ------- 4 0.0 2.0 29 44
+ 1.93896 1 2 tcp 1040 ------- 4 0.0 2.0 29 44
- 1.93896 1 2 tcp 1040 ------- 4 0.0 2.0 29 44
r 1.93904 1 2 tcp 1040 ------- 4 0.0 2.0 16 31
+ 1.93904 2 1 ack 40 ------- 4 2.0 0.0 16 47
- 1.93904 2 1 ack 40 ------- 4 2.0 0.0 16 47
r 1.94312 0 1 tcp 1040 ------- 4 0.0 2.0 30 45
+ 1.94312 1 2 tcp 1040 ------- 4 0.0 2.0 30 45
- 1.94312 1 2 tcp 1040 ------- 4 0.0 2.0 30 45
r 1.9432 1 2 tcp 1040 ------- 4 0.0 2.0 17 32
+ 1.9432 2 1 ack 40 ------- 4 2.0 0.0 17 48
- 1.9432 2 1 ack 40 ------- 4 2.0 0.0 17 48
r 1.94736 1 2 tcp 1040 ------- 4 0.0 2.0 18 33
+ 1.94736 2 1 ack 40 ------- 4 2.0 0.0 18 49
- 1.94736 2 1 ack 40 ------- 4 2.0 0.0 18 49
r 1.95152 1 2 tcp 1040 ------- 4 0.0 2.0 19 34
+ 1.95152 2 1 ack 40 ------- 4 2.0 0.0 19 50
- 1.95152 2 1 ack 40 ------- 4 2.0 0.0 19 50
r 1.95568 1 2 tcp 1040 ------- 4 0.0 2.0 20 35
+ 1.95568 2 1 ack 40 ------- 4 2.0 0.0 20 51
- 1.95568 2 1 ack 40 ------- 4 2.0 0.0 20 51
r 1.95984 1 2 tcp 1040 ------- 4 0.0 2.0 21 36
+ 1.95984 2 1 ack 40 ------- 4 2.0 0.0 21 52
- 1.95984 2 1 ack 40 ------- 4 2.0 0.0 21 52
r 1.964 1 2 tcp 1040 ------- 4 0.0 2.0 22 37
+ 1.964 2 1 ack 40 ------- 4 2.0 0.0 22 53
- 1.964 2 1 ack 40 ------- 4 2.0 0.0 22 53
r 1.96816 1 2 tcp 1040 ------- 4 0.0 2.0 23 38
+ 1.96816 2 1 ack 40 ------- 4 2.0 0.0 23 54
- 1.96816 2 1 ack 40 ------- 4 2.0 0.0 23 54
r 1.97232 1 2 tcp 1040 ------- 4 0.0 2.0 24 39
+ 1.97232 2 1 ack 40 ------- 4 2.0 0.0 24 55
- 1.97232 2 1 ack 40 ------- 4 2.0 0.0 24 55
r 1.97648 1 2 tcp 1040 ------- 4 0.0 2.0 25 40
+ 1.97648 2 1 ack 40 ------- 4 2.0 0.0 25 56
- 1.97648 2 1 ack 40 ------- 4 2.0 0.0 25 56
r 1.98064 1 2 tcp 1040 ------- 4 0.0 2.0 26 41
+ 1.98064 2 1 ack 40 ------- 4 2.0 0.0 26 57
- 1.98064 2 1 ack 40 ------- 4 2.0 0.0 26 57
r 1.9848 1 2 tcp 1040 ------- 4 0.0 2.0 27 42
+ 1.9848 2 1 ack 40 ------- 4 2.0 0.0 27 58
- 1.9848 2 1 ack 40 ------- 4 2.0 0.0 27 58
r 1.98504 2 1 ack 40 ------- 4 2.0 0.0 15 46
+ 1.98504 1 0 ack 40 ------- 4 2.0 0.0 15 46
- 1.98504 1 0 ack 40 ------- 4 2.0 0.0 15 46
r 1.98896 1 2 tcp 1040 ------- 4 0.0 2.0 28 43
+ 1.98896 2 1 ack 40 ------- 4 2.0 0.0 28 59
- 1.98896 2 1 ack 40 ------- 4 2.0 0.0 28 59
r 1.9892 2 1 ack 40 ------- 4 2.0 0.0 16 47
+ 1.9892 1 0 ack 40 ------- 4 2.0 0.0 16 47
- 1.9892 1 0 ack 40 ------- 4 2.0 0.0 16 47
r 1.99312 1 2 tcp 1040 ------- 4 0.0 2.0 29 44
+ 1.99312 2 1 ack 40 ------- 4 2.0 0.0 29 60
- 1.99312 2 1 ack 40 ------- 4 2.0 0.0 29 60
r 1.99336 2 1 ack 40 ------- 4 2.0 0.0 17 48
+ 1.99336 1 0 ack 40 ------- 4 2.0 0.0 17 48
- 1.99336 1 0 ack 40 ------- 4 2.0 0.0 17 48
r 1.99728 1 2 tcp 1040 ------- 4 0.0 2.0 30 45
+ 1.99728 2 1 ack 40 ------- 4 2.0 0.0 30 61
- 1.99728 2 1 ack 40 ------- 4 2.0 0.0 30 61
r 1.99752 2 1 ack 40 ------- 4 2.0 0.0 18 49
+ 1.99752 1 0 ack 40 ------- 4 2.0 0.0 18 49
- 1.99752 1 0 ack 40 ------- 4 2.0 0.0 18 49
r 2.00168 2 1 ack 40 ------- 4 2.0 0.0 19 50
+ 2.00168 1 0 ack 40 ------- 4 2.0 0.0 19 50
- 2.00168 1 0 ack 40 ------- 4 2.0 0.0 19 50
r 2.00584 2 1 ack 40 ------- 4 2.0 0.0 20 51
+ 2.00584 1 0 ack 40 ------- 4 2.0 0.0 20 51
- 2.00584 1 0 ack 40 ------- 4 2.0 0.0 20 51
r 2.01 2 1 ack 40 ------- 4 2.0 0.0 21 52
+ 2.01 1 0 ack 40 ------- 4 2.0 0.0 21 52
- 2.01 1 0 ack 40 ------- 4 2.0 0.0 21 52
r 2.01416 2 1 ack 40 ------- 4 2.0 0.0 22 53
+ 2.01416 1 0 ack 40 ------- 4 2.0 0.0 22 53
- 2.01416 1 0 ack 40 ------- 4 2.0 0.0 22 53
r 2.01832 2 1 ack 40 ------- 4 2.0 0.0 23 54
+ 2.01832 1 0 ack 40 ------- 4 2.0 0.0 23 54
- 2.01832 1 0 ack 40 ------- 4 2.0 0.0 23 54
r 2.02248 2 1 ack 40 ------- 4 2.0 0.0 24 55
+ 2.02248 1 0 ack 40 ------- 4 2.0 0.0 24 55
- 2.02248 1 0 ack 40 ------- 4 2.0 0.0 24 55
r 2.02664 2 1 ack 40 ------- 4 2.0 0.0 25 56
+ 2.02664 1 0 ack 40 ------- 4 2.0 0.0 25 56
- 2.02664 1 0 ack 40 ------- 4 2.0 0.0 25 56
r 2.0308 2 1 ack 40 ------- 4 2.0 0.0 26 57
+ 2.0308 1 0 ack 40 ------- 4 2.0 0.0 26 57
- 2.0308 1 0 ack 40 ------- 4 2.0 0.0 26 57
r 2.03496 2 1 ack 40 ------- 4 2.0 0.0 27 58
+ 2.03496 1 0 ack 40 ------- 4 2.0 0.0 27 58
- 2.03496 1 0 ack 40 ------- 4 2.0 0.0 27 58
r 2.0352 1 0 ack 40 ------- 4 2.0 0.0 15 46
+ 2.0352 0 1 tcp 1040 ------- 4 0.0 2.0 31 62
- 2.0352 0 1 tcp 1040 ------- 4 0.0 2.0 31 62
+ 2.0352 0 1 tcp 1040 ------- 4 0.0 2.0 32 63
r 2.03912 2 1 ack 40 ------- 4 2.0 0.0 28 59
+ 2.03912 1 0 ack 40 ------- 4 2.0 0.0 28 59
- 2.03912 1 0 ack 40 ------- 4 2.0 0.0 28 59
r 2.03936 1 0 ack 40 ------- 4 2.0 0.0 16 47
+ 2.03936 0 1 tcp 1040 ------- 4 0.0 2.0 33 64
+ 2.03936 0 1 tcp 1040 ------- 4 0.0 2.0 34 65
- 2.03936 0 1 tcp 1040 ------- 4 0.0 2.0 32 63
r 2.04328 2 1 ack 40 ------- 4 2.0 0.0 29 60
+ 2.04328 1 0 ack 40 ------- 4 2.0 0.0 29 60
- 2.04328 1 0 ack 40 ------- 4 2.0 0.0 29 60
r 2.04352 1 0 ack 40 ------- 4 2.0 0.0 17 48
+ 2.04352 0 1 tcp 1040 ------- 4 0.0 2.0 35 66
+ 2.04352 0 1 tcp 1040 ------- 4 0.0 2.0 36 67
- 2.04352 0 1 tcp 1040 ------- 4 0.0 2.0 33 64
r 2.04744 2 1 ack 40 ------- 4 2.0 0.0 30 61
+ 2.04744 1 0 ack 40 ------- 4 2.0 0.0 30 61
- 2.04744 1 0 ack 40 ------- 4 2.0 0.0 30 61
r 2.04768 1 0 ack 40 ------- 4 2.0 0.0 18 49
+ 2.04768 0 1 tcp 1040 ------- 4 0.0 2.0 37 68
+ 2.04768 0 1 tcp 1040 ------- 4 0.0 2.0 38 69
- 2.04768 0 1 tcp 1040 ------- 4 0.0 2.0 34 65
r 2.05184 1 0 ack 40 ------- 4 2.0 0.0 19 50
+ 2.05184 0 1 tcp 1040 ------- 4 0.0 2.0 39 70
- 2.05184 0 1 tcp 1040 ------- 4 0.0 2.0 35 66
r 2.056 1 0 ack 40 ------- 4 2.0 0.0 20 51
+ 2.056 0 1 tcp 1040 ------- 4 0.0 2.0 40 71
- 2.056 0 1 tcp 1040 ------- 4 0.0 2.0 36 67
r 2.06016 1 0 ack 40 ------- 4 2.0 0.0 21 52
+ 2.06016 0 1 tcp 1040 ------- 4 0.0 2.0 41 72
- 2.06016 0 1 tcp 1040 ------- 4 0.0 2.0 37 68
r 2.06432 1 0 ack 40 ------- 4 2.0 0.0 22 53
+ 2.06432 0 1 tcp 1040 ------- 4 0.0 2.0 42 73
- 2.06432 0 1 tcp 1040 ------- 4 0.0 2.0 38 69
r 2.06848 1 0 ack 40 ------- 4 2.0 0.0 23 54
+ 2.06848 0 1 tcp 1040 ------- 4 0.0 2.0 43 74
- 2.06848 0 1 tcp 1040 ------- 4 0.0 2.0 39 70
r 2.07264 1 0 ack 40 ------- 4 2.0 0.0 24 55
+ 2.07264 0 1 tcp 1040 ------- 4 0.0 2.0 44 75
- 2.07264 0 1 tcp 1040 ------- 4 0.0 2.0 40 71
r 2.0768 1 0 ack 40 ------- 4 2.0 0.0 25 56
+ 2.0768 0 1 tcp 1040 ------- 4 0.0 2.0 45 76
- 2.0768 0 1 tcp 1040 ------- 4 0.0 2.0 41 72
r 2.08096 1 0 ack 40 ------- 4 2.0 0.0 26 57
+ 2.08096 0 1 tcp 1040 ------- 4 0.0 2.0 46 77
- 2.08096 0 1 tcp 1040 ------- 4 0.0 2.0 42 73
r 2.08512 1 0 ack 40 ------- 4 2.0 0.0 27 58
+ 2.08512 0 1 tcp 1040 ------- 4 0.0 2.0 47 78
- 2.08512 0 1 tcp 1040 ------- 4 0.0 2.0 43 74
r 2.08928 1 0 ack 40 ------- 4 2.0 0.0 28 59
+ 2.08928 0 1 tcp 1040 ------- 4 0.0 2.0 48 79
- 2.08928 0 1 tcp 1040 ------- 4 0.0 2.0 44 75
r 2.08936 0 1 tcp 1040 ------- 4 0.0 2.0 31 62
+ 2.08936 1 2 tcp 1040 ------- 4 0.0 2.0 31 62
- 2.08936 1 2 tcp 1040 ------- 4 0.0 2.0 31 62
r 2.09344 1 0 ack 40 ------- 4 2.0 0.0 29 60
+ 2.09344 0 1 tcp 1040 ------- 4 0.0 2.0 49 80
- 2.09344 0 1 tcp 1040 ------- 4 0.0 2.0 45 76
r 2.09352 0 1 tcp 1040 ------- 4 0.0 2.0 32 63
+ 2.09352 1 2 tcp 1040 ------- 4 0.0 2.0 32 63
- 2.09352 1 2 tcp 1040 ------- 4 0.0 2.0 32 63
r 2.0976 1 0 ack 40 ------- 4 2.0 0.0 30 61
+ 2.0976 0 1 tcp 1040 ------- 4 0.0 2.0 50 81
- 2.0976 0 1 tcp 1040 ------- 4 0.0 2.0 46 77
r 2.09768 0 1 tcp 1040 ------- 4 0.0 2.0 33 64
+ 2.09768 1 2 tcp 1040 ------- 4 0.0 2.0 33 64
- 2.09768 1 2 tcp 1040 ------- 4 0.0 2.0 33 64
- 2.10176 0 1 tcp 1040 ------- 4 0.0 2.0 47 78
r 2.10184 0 1 tcp 1040 ------- 4 0.0 2.0 34 65
+ 2.10184 1 2 tcp 1040 ------- 4 0.0 2.0 34 65
- 2.10184 1 2 tcp 1040 ------- 4 0.0 2.0 34 65
- 2.10592 0 1 tcp 1040 ------- 4 0.0 2.0 48 79
r 2.106 0 1 tcp 1040 ------- 4 0.0 2.0 35 66
+ 2.106 1 2 tcp 1040 ------- 4 0.0 2.0 35 66
- 2.106 1 2 tcp 1040 ------- 4 0.0 2.0 35 66
- 2.11008 0 1 tcp 1040 ------- 4 0.0 2.0 49 80
r 2.11016 0 1 tcp 1040 ------- 4 0.0 2.0 36 67
+ 2.11016 1 2 tcp 1040 ------- 4 0.0 2.0 36 67
- 2.11016 1 2 tcp 1040 ------- 4 0.0 2.0 36 67
- 2.11424 0 1 tcp 1040 ------- 4 0.0 2.0 50 81
r 2.11432 0 1 tcp 1040 ------- 4 0.0 2.0 37 68
+ 2.11432 1 2 tcp 1040 ------- 4 0.0 2.0 37 68
- 2.11432 1 2 tcp 1040 ------- 4 0.0 2.0 37 68
r 2.11848 0 1 tcp 1040 ------- 4 0.0 2.0 38 69
+ 2.11848 1 2 tcp 1040 ------- 4 0.0 2.0 38 69
- 2.11848 1 2 tcp 1040 ------- 4 0.0 2.0 38 69
r 2.12264 0 1 tcp 1040 ------- 4 0.0 2.0 39 70
+ 2.12264 1 2 tcp 1040 ------- 4 0.0 2.0 39 70
- 2.12264 1 2 tcp 1040 ------- 4 0.0 2.0 39 70
r 2.1268 0 1 tcp 1040 ------- 4 0.0 2.0 40 71
+ 2.1268 1 2 tcp 1040 ------- 4 0.0 2.0 40 71
- 2.1268 1 2 tcp 1040 ------- 4 0.0 2.0 40 71
r 2.13096 0 1 tcp 1040 ------- 4 0.0 2.0 41 72
+ 2.13096 1 2 tcp 1040 ------- 4 0.0 2.0 41 72
- 2.13096 1 2 tcp 1040 ------- 4 0.0 2.0 41 72
r 2.13512 0 1 tcp 1040 ------- 4 0.0 2.0 42 73
+ 2.13512 1 2 tcp 1040 ------- 4 0.0 2.0 42 73
- 2.13512 1 2 tcp 1040 ------- 4 0.0 2.0 42 73
r 2.13928 0 1 tcp 1040 ------- 4 0.0 2.0 43 74
+ 2.13928 1 2 tcp 1040 ------- 4 0.0 2.0 43 74
- 2.13928 1 2 tcp 1040 ------- 4 0.0 2.0 43 74
r 2.14344 0 1 tcp 1040 ------- 4 0.0 2.0 44 75
+ 2.14344 1 2 tcp 1040 ------- 4 0.0 2.0 44 75
- 2.14344 1 2 tcp 1040 ------- 4 0.0 2.0 44 75
r 2.14352 1 2 tcp 1040 ------- 4 0.0 2.0 31 62
+ 2.14352 2 1 ack 40 ------- 4 2.0 0.0 31 82
- 2.14352 2 1 ack 40 ------- 4 2.0 0.0 31 82
r 2.1476 0 1 tcp 1040 ------- 4 0.0 2.0 45 76
+ 2.1476 1 2 tcp 1040 ------- 4 0.0 2.0 45 76
- 2.1476 1 2 tcp 1040 ------- 4 0.0 2.0 45 76
r 2.14768 1 2 tcp 1040 ------- 4 0.0 2.0 32 63
+ 2.14768 2 1 ack 40 ------- 4 2.0 0.0 32 83
- 2.14768 2 1 ack 40 ------- 4 2.0 0.0 32 83
r 2.15176 0 1 tcp 1040 ------- 4 0.0 2.0 46 77
+ 2.15176 1 2 tcp 1040 ------- 4 0.0 2.0 46 77
- 2.15176 1 2 tcp 1040 ------- 4 0.0 2.0 46 77
r 2.15184 1 2 tcp 1040 ------- 4 0.0 2.0 33 64
+ 2.15184 2 1 ack 40 ------- 4 2.0 0.0 33 84
- 2.15184 2 1 ack 40 ------- 4 2.0 0.0 33 84
r 2.15592 0 1 tcp 1040 ------- 4 0.0 2.0 47 78
+ 2.15592 1 2 tcp 1040 ------- 4 0.0 2.0 47 78
- 2.15592 1 2 tcp 1040 ------- 4 0.0 2.0 47 78
r 2.156 1 2 tcp 1040 ------- 4 0.0 2.0 34 65
+ 2.156 2 1 ack 40 ------- 4 2.0 0.0 34 85
- 2.156 2 1 ack 40 ------- 4 2.0 0.0 34 85
r 2.16008 0 1 tcp 1040 ------- 4 0.0 2.0 48 79
+ 2.16008 1 2 tcp 1040 ------- 4 0.0 2.0 48 79
- 2.16008 1 2 tcp 1040 ------- 4 0.0 2.0 48 79
r 2.16016 1 2 tcp 1040 ------- 4 0.0 2.0 35 66
+ 2.16016 2 1 ack 40 ------- 4 2.0 0.0 35 86
- 2.16016 2 1 ack 40 ------- 4 2.0 0.0 35 86
r 2.16424 0 1 tcp 1040 ------- 4 0.0 2.0 49 80
+ 2.16424 1 2 tcp 1040 ------- 4 0.0 2.0 49 80
- 2.16424 1 2 tcp 1040 ------- 4 0.0 2.0 49 80
r 2.16432 1 2 tcp 1040 ------- 4 0.0 2.0 36 67
+ 2.16432 2 1 ack 40 ------- 4 2.0 0.0 36 87
- 2.16432 2 1 ack 40 ------- 4 2.0 0.0 36 87
r 2.1684 0 1 tcp 1040 ------- 4 0.0 2.0 50 81
+ 2.1684 1 2 tcp 1040 ------- 4 0.0 2.0 50 81
- 2.1684 1 2 tcp 1040 ------- 4 0.0 2.0 50 81
r 2.16848 1 2 tcp 1040 ------- 4 0.0 2.0 37 68
+ 2.16848 2 1 ack 40 ------- 4 2.0 0.0 37 88
- 2.16848 2 1 ack 40 ------- 4 2.0 0.0 37 88
r 2.17264 1 2 tcp 1040 ------- 4 0.0 2.0 38 69
+ 2.17264 2 1 ack 40 ------- 4 2.0 0.0 38 89
- 2.17264 2 1 ack 40 ------- 4 2.0 0.0 38 89
r 2.1768 1 2 tcp 1040 ------- 4 0.0 2.0 39 70
+ 2.1768 2 1 ack 40 ------- 4 2.0 0.0 39 90
- 2.1768 2 1 ack 40 ------- 4 2.0 0.0 39 90
r 2.18096 1 2 tcp 1040 ------- 4 0.0 2.0 40 71
+ 2.18096 2 1 ack 40 ------- 4 2.0 0.0 40 91
- 2.18096 2 1 ack 40 ------- 4 2.0 0.0 40 91
r 2.18512 1 2 tcp 1040 ------- 4 0.0 2.0 41 72
+ 2.18512 2 1 ack 40 ------- 4 2.0 0.0 41 92
- 2.18512 2 1 ack 40 ------- 4 2.0 0.0 41 92
r 2.18928 1 2 tcp 1040 ------- 4 0.0 2.0 42 73
+ 2.18928 2 1 ack 40 ------- 4 2.0 0.0 42 93
- 2.18928 2 1 ack 40 ------- 4 2.0 0.0 42 93
r 2.19344 1 2 tcp 1040 ------- 4 0.0 2.0 43 74
+ 2.19344 2 1 ack 40 ------- 4 2.0 0.0 43 94
- 2.19344 2 1 ack 40 ------- 4 2.0 0.0 43 94
r 2.19368 2 1 ack 40 ------- 4 2.0 0.0 31 82
+ 2.19368 1 0 ack 40 ------- 4 2.0 0.0 31 82
- 2.19368 1 0 ack 40 ------- 4 2.0 0.0 31 82
r 2.1976 1 2 tcp 1040 ------- 4 0.0 2.0 44 75
+ 2.1976 2 1 ack 40 ------- 4 2.0 0.0 44 95
- 2.1976 2 1 ack 40 ------- 4 2.0 0.0 44 95
r 2.19784 2 1 ack 40 ------- 4 2.0 0.0 32 83
+ 2.19784 1 0 ack 40 ------- 4 2.0 0.0 32 83
- 2.19784 1 0 ack 40 ------- 4 2.0 0.0 32 83
r 2.20176 1 2 tcp 1040 ------- 4 0.0 2.0 45 76
+ 2.20176 2 1 ack 40 ------- 4 2.0 0.0 45 96
- 2.20176 2 1 ack 40 ------- 4 2.0 0.0 45 96
r 2.202 2 1 ack 40 ------- 4 2.0 0.0 33 84
+ 2.202 1 0 ack 40 ------- 4 2.0 0.0 33 84
- 2.202 1 0 ack 40 ------- 4 2.0 0.0 33 84
r 2.20592 1 2 tcp 1040 ------- 4 0.0 2.0 46 77
+ 2.20592 2 1 ack 40 ------- 4 2.0 0.0 46 97
- 2.20592 2 1 ack 40 ------- 4 2.0 0.0 46 97
r 2.20616 2 1 ack 40 ------- 4 2.0 0.0 34 85
+ 2.20616 1 0 ack 40 ------- 4 2.0 0.0 34 85
- 2.20616 1 0 ack 40 ------- 4 2.0 0.0 34 85
r 2.21008 1 2 tcp 1040 ------- 4 0.0 2.0 47 78
+ 2.21008 2 1 ack 40 ------- 4 2.0 0.0 47 98
- 2.21008 2 1 ack 40 ------- 4 2.0 0.0 47 98
r 2.21032 2 1 ack 40 ------- 4 2.0 0.0 35 86
+ 2.21032 1 0 ack 40 ------- 4 2.0 0.0 35 86
- 2.21032 1 0 ack 40 ------- 4 2.0 0.0 35 86
r 2.21424 1 2 tcp 1040 ------- 4 0.0 2.0 48 79
+ 2.21424 2 1 ack 40 ------- 4 2.0 0.0 48 99
- 2.21424 2 1 ack 40 ------- 4 2.0 0.0 48 99
r 2.21448 2 1 ack 40 ------- 4 2.0 0.0 36 87
+ 2.21448 1 0 ack 40 ------- 4 2.0 0.0 36 87
- 2.21448 1 0 ack 40 ------- 4 2.0 0.0 36 87
r 2.2184 1 2 tcp 1040 ------- 4 0.0 2.0 49 80
+ 2.2184 2 1 ack 40 ------- 4 2.0 0.0 49 100
- 2.2184 2 1 ack 40 ------- 4 2.0 0.0 49 100
r 2.21864 2 1 ack 40 ------- 4 2.0 0.0 37 88
+ 2.21864 1 0 ack 40 ------- 4 2.0 0.0 37 88
- 2.21864 1 0 ack 40 ------- 4 2.0 0.0 37 88
r 2.22256 1 2 tcp 1040 ------- 4 0.0 2.0 50 81
+ 2.22256 2 1 ack 40 ------- 4 2.0 0.0 50 101
- 2.22256 2 1 ack 40 ------- 4 2.0 0.0 50 101
r 2.2228 2 1 ack 40 ------- 4 2.0 0.0 38 89
+ 2.2228 1 0 ack 40 ------- 4 2.0 0.0 38 89
- 2.2228 1 0 ack 40 ------- 4 2.0 0.0 38 89
r 2.22696 2 1 ack 40 ------- 4 2.0 0.0 39 90
+ 2.22696 1 0 ack 40 ------- 4 2.0 0.0 39 90
- 2.22696 1 0 ack 40 ------- 4 2.0 0.0 39 90
r 2.23112 2 1 ack 40 ------- 4 2.0 0.0 40 91
+ 2.23112 1 0 ack 40 ------- 4 2.0 0.0 40 91
- 2.23112 1 0 ack 40 ------- 4 2.0 0.0 40 91
r 2.23528 2 1 ack 40 ------- 4 2.0 0.0 41 92
+ 2.23528 1 0 ack 40 ------- 4 2.0 0.0 41 92
- 2.23528 1 0 ack 40 ------- 4 2.0 0.0 41 92
r 2.23944 2 1 ack 40 ------- 4 2.0 0.0 42 93
+ 2.23944 1 0 ack 40 ------- 4 2.0 0.0 42 93
- 2.23944 1 0 ack 40 ------- 4 2.0 0.0 42 93
r 2.2436 2 1 ack 40 ------- 4 2.0 0.0 43 94
+ 2.2436 1 0 ack 40 ------- 4 2.0 0.0 43 94
- 2.2436 1 0 ack 40 ------- 4 2.0 0.0 43 94
r 2.24384 1 0 ack 40 ------- 4 2.0 0.0 31 82
+ 2.24384 0 1 tcp 1040 ------- 4 0.0 2.0 51 102
- 2.24384 0 1 tcp 1040 ------- 4 0.0 2.0 51 102
r 2.24776 2 1 ack 40 ------- 4 2.0 0.0 44 95
+ 2.24776 1 0 ack 40 ------- 4 2.0 0.0 44 95
- 2.24776 1 0 ack 40 ------- 4 2.0 0.0 44 95
r 2.248 1 0 ack 40 ------- 4 2.0 0.0 32 83
+ 2.248 0 1 tcp 1040 ------- 4 0.0 2.0 52 103
- 2.248 0 1 tcp 1040 ------- 4 0.0 2.0 52 103
r 2.25192 2 1 ack 40 ------- 4 2.0 0.0 45 96
+ 2.25192 1 0 ack 40 ------- 4 2.0 0.0 45 96
- 2.25192 1 0 ack 40 ------- 4 2.0 0.0 45 96
r 2.25216 1 0 ack 40 ------- 4 2.0 0.0 33 84
+ 2.25216 0 1 tcp 1040 ------- 4 0.0 2.0 53 104
- 2.25216 0 1 tcp 1040 ------- 4 0.0 2.0 53 104
r 2.25608 2 1 ack 40 ------- 4 2.0 0.0 46 97
+ 2.25608 1 0 ack 40 ------- 4 2.0 0.0 46 97
- 2.25608 1 0 ack 40 ------- 4 2.0 0.0 46 97
r 2.25632 1 0 ack 40 ------- 4 2.0 0.0 34 85
+ 2.25632 0 1 tcp 1040 ------- 4 0.0 2.0 54 105
- 2.25632 0 1 tcp 1040 ------- 4 0.0 2.0 54 105
r 2.26024 2 1 ack 40 ------- 4 2.0 0.0 47 98
+ 2.26024 1 0 ack 40 ------- 4 2.0 0.0 47 98
- 2.26024 1 0 ack 40 ------- 4 2.0 0.0 47 98
r 2.26048 1 0 ack 40 ------- 4 2.0 0.0 35 86
+ 2.26048 0 1 tcp 1040 ------- 4 0.0 2.0 55 106
- 2.26048 0 1 tcp 1040 ------- 4 0.0 2.0 55 106
r 2.2644 2 1 ack 40 ------- 4 2.0 0.0 48 99
+ 2.2644 1 0 ack 40 ------- 4 2.0 0.0 48 99
- 2.2644 1 0 ack 40 ------- 4 2.0 0.0 48 99
r 2.26464 1 0 ack 40 ------- 4 2.0 0.0 36 87
+ 2.26464 0 1 tcp 1040 ------- 4 0.0 2.0 56 107
- 2.26464 0 1 tcp 1040 ------- 4 0.0 2.0 56 107
r 2.26856 2 1 ack 40 ------- 4 2.0 0.0 49 100
+ 2.26856 1 0 ack 40 ------- 4 2.0 0.0 49 100
- 2.26856 1 0 ack 40 ------- 4 2.0 0.0 49 100
r 2.2688 1 0 ack 40 ------- 4 2.0 0.0 37 88
+ 2.2688 0 1 tcp 1040 ------- 4 0.0 2.0 57 108
- 2.2688 0 1 tcp 1040 ------- 4 0.0 2.0 57 108
r 2.27272 2 1 ack 40 ------- 4 2.0 0.0 50 101
+ 2.27272 1 0 ack 40 ------- 4 2.0 0.0 50 101
- 2.27272 1 0 ack 40 ------- 4 2.0 0.0 50 101
r 2.27296 1 0 ack 40 ------- 4 2.0 0.0 38 89
+ 2.27296 0 1 tcp 1040 ------- 4 0.0 2.0 58 109
- 2.27296 0 1 tcp 1040 ------- 4 0.0 2.0 58 109
r 2.27712 1 0 ack 40 ------- 4 2.0 0.0 39 90
+ 2.27712 0 1 tcp 1040 ------- 4 0.0 2.0 59 110
- 2.27712 0 1 tcp 1040 ------- 4 0.0 2.0 59 110
r 2.28128 1 0 ack 40 ------- 4 2.0 0.0 40 91
+ 2.28128 0 1 tcp 1040 ------- 4 0.0 2.0 60 111
- 2.28128 0 1 tcp 1040 ------- 4 0.0 2.0 60 111
r 2.28544 1 0 ack 40 ------- 4 2.0 0.0 41 92
+ 2.28544 0 1 tcp 1040 ------- 4 0.0 2.0 61 112
- 2.28544 0 1 tcp 1040 ------- 4 0.0 2.0 61 112
r 2.2896 1 0 ack 40 ------- 4 2.0 0.0 42 93
+ 2.2896 0 1 tcp 1040 ------- 4 0.0 2.0 62 113
- 2.2896 0 1 tcp 1040 ------- 4 0.0 2.0 62 113
r 2.29376 1 0 ack 40 ------- 4 2.0 0.0 43 94
+ 2.29376 0 1 tcp 1040 ------- 4 0.0 2.0 63 114
- 2.29376 0 1 tcp 1040 ------- 4 0.0 2.0 63 114
r 2.29792 1 0 ack 40 ------- 4 2.0 0.0 44 95
+ 2.29792 0 1 tcp 1040 ------- 4 0.0 2.0 64 115
- 2.29792 0 1 tcp 1040 ------- 4 0.0 2.0 64 115
r 2.298 0 1 tcp 1040 ------- 4 0.0 2.0 51 102
+ 2.298 1 2 tcp 1040 ------- 4 0.0 2.0 51 102
- 2.298 1 2 tcp 1040 ------- 4 0.0 2.0 51 102
r 2.30208 1 0 ack 40 ------- 4 2.0 0.0 45 96
+ 2.30208 0 1 tcp 1040 ------- 4 0.0 2.0 65 116
- 2.30208 0 1 tcp 1040 ------- 4 0.0 2.0 65 116
r 2.30216 0 1 tcp 1040 ------- 4 0.0 2.0 52 103
+ 2.30216 1 2 tcp 1040 ------- 4 0.0 2.0 52 103
- 2.30216 1 2 tcp 1040 ------- 4 0.0 2.0 52 103
r 2.30624 1 0 ack 40 ------- 4 2.0 0.0 46 97
+ 2.30624 0 1 tcp 1040 ------- 4 0.0 2.0 66 117
- 2.30624 0 1 tcp 1040 ------- 4 0.0 2.0 66 117
r 2.30632 0 1 tcp 1040 ------- 4 0.0 2.0 53 104
+ 2.30632 1 2 tcp 1040 ------- 4 0.0 2.0 53 104
- 2.30632 1 2 tcp 1040 ------- 4 0.0 2.0 53 104
r 2.3104 1 0 ack 40 ------- 4 2.0 0.0 47 98
+ 2.3104 0 1 tcp 1040 ------- 4 0.0 2.0 67 118
- 2.3104 0 1 tcp 1040 ------- 4 0.0 2.0 67 118
r 2.31048 0 1 tcp 1040 ------- 4 0.0 2.0 54 105
+ 2.31048 1 2 tcp 1040 ------- 4 0.0 2.0 54 105
- 2.31048 1 2 tcp 1040 ------- 4 0.0 2.0 54 105
r 2.31456 1 0 ack 40 ------- 4 2.0 0.0 48 99
+ 2.31456 0 1 tcp 1040 ------- 4 0.0 2.0 68 119