V -t * -v 1.0a5 -a 0
A -t * -n 1 -p 0 -o 0x7fffffff -c 30 -a 1
A -t * -h 1 -m 1073741823 -s 0
c -t * -i 4 -n green
c -t * -i 5 -n black
c -t * -i 1 -n darkmagenta
c -t * -i 2 -n yellow
c -t * -i 3 -n blue
n -t * -a 0 -s 0 -S UP -v hexagon -c black -i black
n -t * -a 1 -s 1 -S UP -v circle -c black -i black
n -t * -a 2 -s 2 -S UP -v hexagon -c black -i black
l -t * -s 0 -d 1 -S UP -r 2000000 -D 0.050000000000000003 -c black -o right
l -t * -s 1 -d 2 -S UP -r 2000000 -D 0.050000000000000003 -c black -o right
n -t 0 -s 0 -S DLABEL -l "Server" -L ""
n -t 0 -s 1 -S DLABEL -l "Router" -L ""
n -t 0 -s 2 -S DLABEL -l "Client" -L ""
n -t 0 -s 0 -S COLOR -c blue -o black -i blue -I black
n -t 0 -s 2 -S COLOR -c blue -o black -i blue -I black
+ -t 1 -s 0 -d 1 -p tcp -e 40 -c 4 -i 0 -a 4 -x {0.0 2.0 0 ------- null}
- -t 1 -s 0 -d 1 -p tcp -e 40 -c 4 -i 0 -a 4 -x {0.0 2.0 0 ------- null}
h -t 1 -s 0 -d 1 -p tcp -e 40 -c 4 -i 0 -a 4 -x {0.0 2.0 -1 ------- null}
r -t 1.05016 -s 0 -d 1 -p tcp -e 40 -c 4 -i 0 -a 4 -x {0.0 2.0 0 ------- null}
+ -t 1.05016 -s 1 -d 2 -p tcp -e 40 -c 4 -i 0 -a 4 -x {0.0 2.0 0 ------- null}
- -t 1.05016 -s 1 -d 2 -p tcp -e 40 -c 4 -i 0 -a 4 -x {0.0 2.0 0 ------- null}
h -t 1.05016 -s 1 -d 2 -p tcp -e 40 -c 4 -i 0 -a 4 -x {0.0 2.0 -1 ------- null}
r -t 1.10032 -s 1 -d 2 -p tcp -e 40 -c 4 -i 0 -a 4 -x {0.0 2.0 0 ------- null}
+ -t 1.10032 -s 2 -d 1 -p ack -e 40 -c 4 -i 1 -a 4 -x {2.0 0.0 0 ------- null}
- -t 1.10032 -s 2 -d 1 -p ack -e 40 -c 4 -i 1 -a 4 -x {2.0 0.0 0 ------- null}
h -t 1.10032 -s 2 -d 1 -p ack -e 40 -c 4 -i 1 -a 4 -x {2.0 0.0 -1 ------- null}
r -t 1.15048 -s 2 -d 1 -p ack -e 40 -c 4 -i 1 -a 4 -x {2.0 0.0 0 ------- null}
+ -t 1.15048 -s 1 -d 0 -p ack -e 40 -c 4 -i 1 -a 4 -x {2.0 0.0 0 ------- null}
- -t 1.15048 -s 1 -d 0 -p ack -e 40 -c 4 -i 1 -a 4 -x {2.0 0.0 0 ------- null}
h -t 1.15048 -s 1 -d 0 -p ack -e 40 -c 4 -i 1 -a 4 -x {2.0 0.0 -1 ------- null}
r -t 1.20064 -s 1 -d 0 -p ack -e 40 -c 4 -i 1 -a 4 -x {2.0 0.0 0 ------- null}
+ -t 1.20064 -s 0 -d 1 -p tcp -e 1040 -c 4 -i 2 -a 4 -x {0.0 2.0 1 ------- null}
- -t 1.20064 -s 0 -d 1 -p tcp -e 1040 -c 4 -i 2 -a 4 -x {0.0 2.0 1 ------- null}
h -t 1.20064 -s 0 -d 1 -p tcp -e 1040 -c 4 -i 2 -a 4 -x {0.0 2.0 -1 ------- null}
+ -t 1.20064 -s 0 -d 1 -p tcp -e 1040 -c 4 -i 3 -a 4 -x {0.0 2.0 2 ------- null}
- -t 1.2048 -s 0 -d 1 -p tcp -e 1040 -c 4 -i 3 -a 4 -x {0.0 2.0 2 ------- null}
h -t 1.2048 -s 0 -d 1 -p tcp -e 1040 -c 4 -i 3 -a 4 -x {0.0 2.0 -1 ------- null}
r -t 1.2548 -s 0 -d 1 -p tcp -e 1040 -c 4 -i 2 -a 4 -x {0.0 2.0 1 ------- null}
+ -t 1.2548 -s 1 -d 2 -p tcp -e 1040 -c 4 -i 2 -a 4 -x {0.0 2.0 1 ------- null}
- -t 1.2548 -s 1 -d 2 -p tcp -e 1040 -c 4 -i 2 -a 4 -x {0.0 2.0 1 ------- null}
h -t 1.2548 -s 1 -d 2 -p tcp -e 1040 -c 4 -i 2 -a 4 -x {0.0 2.0 -1 ------- null}
r -t 1.25896 -s 0 -d 1 -p tcp -e 1040 -c 4 -i 3 -a 4 -x {0.0 2.0 2 ------- null}
+ -t 1.25896 -s 1 -d 2 -p tcp -e 1040 -c 4 -i 3 -a 4 -x {0.0 2.0 2 ------- null}
- -t 1.25896 -s 1 -d 2 -p tcp -e 1040 -c 4 -i 3 -a 4 -x {0.0 2.0 2 ------- null}
h -t 1.25896 -s 1 -d 2 -p tcp -e 1040 -c 4 -i 3 -a 4 -x {0.0 2.0 -1 ------- null}
r -t 1.30896 -s 1 -d 2 -p tcp -e 1040 -c 4 -i 2 -a 4 -x {0.0 2.0 1 ------- null}
+ -t 1.30896 -s 2 -d 1 -p ack -e 40 -c 4 -i 4 -a 4 -x {2.0 0.0 1 ------- null}
- -t 1.30896 -s 2 -d 1 -p ack -e 40 -c 4 -i 4 -a 4 -x {2.0 0.0 1 ------- null}
h -t 1.30896 -s 2 -d 1 -p ack -e 40 -c 4 -i 4 -a 4 -x {2.0 0.0 -1 ------- null}
r -t 1.31312 -s 1 -d 2 -p tcp -e 1040 -c 4 -i 3 -a 4 -x {0.0 2.0 2 ------- null}
+ -t 1.31312 -s 2 -d 1 -p ack -e 40 -c 4 -i 5 -a 4 -x {2.0 0.0 2 ------- null}
- -t 1.31312 -s 2 -d 1 -p ack -e 40 -c 4 -i 5 -a 4 -x {2.0 0.0 2 ------- null}
h -t 1.31312 -s 2 -d 1 -p ack -e 40 -c 4 -i 5 -a 4 -x {2.0 0.0 -1 ------- null}
r -t 1.35912 -s 2 -d 1 -p ack -e 40 -c 4 -i 4 -a 4 -x {2.0 0.0 1 ------- null}
+ -t 1.35912 -s 1 -d 0 -p ack -e 40 -c 4 -i 4 -a 4 -x {2.0 0.0 1 ------- null}
- -t 1.35912 -s 1 -d 0 -p ack -e 40 -c 4 -i 4 -a 4 -x {2.0 0.0 1 ------- null}
h -t 1.35912 -s 1 -d 0 -p ack -e 40 -c 4 -i 4 -a 4 -x {2.0 0.0 -1 ------- null}
r -t 1.36328 -s 2 -d 1 -p ack -e 40 -c 4 -i 5 -a 4 -x {2.0 0.0 2 ------- null}
+ -t 1.36328 -s 1 -d 0 -p ack -e 40 -c 4 -i 5 -a 4 -x {2.0 0.0 2 ------- null}
- -t 1.36328 -s 1 -d 0 -p ack -e 40 -c 4 -i 5 -a 4 -x {2.0 0.0 2 ------- null}
h -t 1.36328 -s 1 -d 0 -p ack -e 40 -c 4 -i 5 -a 4 -x {2.0 0.0 -1 ------- null}
r -t 1.40928 -s 1 -d 0 -p ack -e 40 -c 4 -i 4 -a 4 -x {2.0 0.0 1 ------- null}
+ -t 1.40928 -s 0 -d 1 -p tcp -e 1040 -c 4 -i 6 -a 4 -x {0.0 2.0 3 ------- null}
- -t 1.40928 -s 0 -d 1 -p tcp -e 1040 -c 4 -i 6 -a 4 -x {0.0 2.0 3 ------- null}
h -t 1.40928 -s 0 -d 1 -p tcp -e 1040 -c 4 -i 6 -a 4 -x {0.0 2.0 -1 ------- null}
+ -t 1.40928 -s 0 -d 1 -p tcp -e 1040 -c 4 -i 7 -a 4 -x {0.0 2.0 4 ------- null}
r -t 1.41344 -s 1 -d 0 -p ack -e 40 -c 4 -i 5 -a 4 -x {2.0 0.0 2 ------- null}
+ -t 1.41344 -s 0 -d 1 -p tcp -e 1040 -c 4 -i 8 -a 4 -x {0.0 2.0 5 ------- null}
+ -t 1.41344 -s 0 -d 1 -p tcp -e 1040 -c 4 -i 9 -a 4 -x {0.0 2.0 6 ------- null}
- -t 1.41344 -s 0 -d 1 -p tcp -e 1040 -c 4 -i 7 -a 4 -x {0.0 2.0 4 ------- null}
h -t 1.41344 -s 0 -d 1 -p tcp -e 1040 -c 4 -i 7 -a 4 -x {0.0 2.0 -1 ------- null}
- -t 1.4176 -s 0 -d 1 -p tcp -e 1040 -c 4 -i 8 -a 4 -x {0.0 2.0 5 ------- null}
h -t 1.4176 -s 0 -d 1 -p tcp -e 1040 -c 4 -i 8 -a 4 -x {0.0 2.0 -1 ------- null}
- -t 1.42176 -s 0 -d 1 -p tcp -e 1040 -c 4 -i 9 -a 4 -x {0.0 2.0 6 ------- null}
h -t 1.42176 -s 0 -d 1 -p tcp -e 1040 -c 4 -i 9 -a 4 -x {0.0 2.0 -1 ------- null}
r -t 1.46344 -s 0 -d 1 -p tcp -e 1040 -c 4 -i 6 -a 4 -x {0.0 2.0 3 ------- null}
+ -t 1.46344 -s 1 -d 2 -p tcp -e 1040 -c 4 -i 6 -a 4 -x {0.0 2.0 3 ------- null}
- -t 1.46344 -s 1 -d 2 -p tcp -e 1040 -c 4 -i 6 -a 4 -x {0.0 2.0 3 ------- null}
h -t 1.46344 -s 1 -d 2 -p tcp -e 1040 -c 4 -i 6 -a 4 -x {0.0 2.0 -1 ------- null}
r -t 1.4676 -s 0 -d 1 -p tcp -e 1040 -c 4 -i 7 -a 4 -x {0.0 2.0 4 ------- null}
+ -t 1.4676 -s 1 -d 2 -p tcp -e 1040 -c 4 -i 7 -a 4 -x {0.0 2.0 4 ------- null}
- -t 1.4676 -s 1 -d 2 -p tcp -e 1040 -c 4 -i 7 -a 4 -x {0.0 2.0 4 ------- null}
h -t 1.4676 -s 1 -d 2 -p tcp -e 1040 -c 4 -i 7 -a 4 -x {0.0 2.0 -1 ------- null}
r -t 1.47176 -s 0 -d 1 -p tcp -e 1040 -c 4 -i 8 -a 4 -x {0.0 2.0 5 ------- null}
+ -t 1.47176 -s 1 -d 2 -p tcp -e 1040 -c 4 -i 8 -a 4 -x {0.0 2.0 5 ------- null}
- -t 1.47176 -s 1 -d 2 -p tcp -e 1040 -c 4 -i 8 -a 4 -x {0.0 2.0 5 ------- null}
h -t 1.47176 -s 1 -d 2 -p tcp -e 1040 -c 4 -i 8 -a 4 -x {0.0 2.0 -1 ------- null}
r -t 1.47592 -s 0 -d 1 -p tcp -e 1040 -c 4 -i 9 -a 4 -x {0.0 2.0 6 ------- null}
+ -t 1.47592 -s 1 -d 2 -p tcp -e 1040 -c 4 -i 9 -a 4 -x {0.0 2.0 6 ------- null}
- -t 1.47592 -s 1 -d 2 -p tcp -e 1040 -c 4 -i 9 -a 4 -x {0.0 2.0 6 ------- null}
h -t 1.47592 -s 1 -d 2 -p tcp -e 1040 -c 4 -i 9 -a 4 -x {0.0 2.0 -1 ------- null}
r -t 1.5176 -s 1 -d 2 -p tcp -e 1040 -c 4 -i 6 -a 4 -x {0.0 2.0 3 ------- null}
+ -t 1.5176 -s 2 -d 1 -p ack -e 40 -c 4 -i 10 -a 4 -x {2.0 0.0 3 ------- null}
- -t 1.5176 -s 2 -d 1 -p ack -e 40 -c 4 -i 10 -a 4 -x {2.0 0.0 3 ------- null}
h -t 1.5176 -s 2 -d 1 -p ack -e 40 -c 4 -i 10 -a 4 -x {2.0 0.0 -1 ------- null}
r -t 1.52176 -s 1 -d 2 -p tcp -e 1040 -c 4 -i 7 -a 4 -x {0.0 2.0 4 ------- null}
+ -t 1.52176 -s 2 -d 1 -p ack -e 40 -c 4 -i 11 -a 4 -x {2.0 0.0 4 ------- null}
- -t 1.52176 -s 2 -d 1 -p ack -e 40 -c 4 -i 11 -a 4 -x {2.0 0.0 4 ------- null}
h -t 1.52176 -s 2 -d 1 -p ack -e 40 -c 4 -i 11 -a 4 -x {2.0 0.0 -1 ------- null}
r -t 1.52592 -s 1 -d 2 -p tcp -e 1040 -c 4 -i 8 -a 4 -x {0.0 2.0 5 ------- null}
+ -t 1.52592 -s 2 -d 1 -p ack -e 40 -c 4 -i 12 -a 4 -x {2.0 0.0 5 ------- null}
- -t 1.52592 -s 2 -d 1 -p ack -e 40 -c 4 -i 12 -a 4 -x {2.0 0.0 5 ------- null}
h -t 1.52592 -s 2 -d 1 -p ack -e 40 -c 4 -i 12 -a 4 -x {2.0 0.0 -1 ------- null}
r -t 1.53008 -s 1 -d 2 -p tcp -e 1040 -c 4 -i 9 -a 4 -x {0.0 2.0 6 ------- null}
+ -t 1.53008 -s 2 -d 1 -p ack -e 40 -c 4 -i 13 -a 4 -x {2.0 0.0 6 ------- null}
- -t 1.53008 -s 2 -d 1 -p ack -e 40 -c 4 -i 13 -a 4 -x {2.0 0.0 6 ------- null}
h -t 1.53008 -s 2 -d 1 -p ack -e 40 -c 4 -i 13 -a 4 -x {2.0 0.0 -1 ------- null}
r -t 1.56776 -s 2 -d 1 -p ack -e 40 -c 4 -i 10 -a 4 -x {2.0 0.0 3 ------- null}
+ -t 1.56776 -s 1 -d 0 -p ack -e 40 -c 4 -i 10 -a 4 -x {2.0 0.0 3 ------- null}
- -t 1.56776 -s 1 -d 0 -p ack -e 40 -c 4 -i 10 -a 4 -x {2.0 0.0 3 ------- null}
h -t 1.56776 -s 1 -d 0 -p ack -e 40 -c 4 -i 10 -a 4 -x {2.0 0.0 -1 ------- null}
r -t 1.57192 -s 2 -d 1 -p ack -e 40 -c 4 -i 11 -a 4 -x {2.0 0.0 4 ------- null}
+ -t 1.57192 -s 1 -d 0 -p ack -e 40 -c 4 -i 11 -a 4 -x {2.0 0.0 4 ------- null}
- -t 1.57192 -s 1 -d 0 -p ack -e 40 -c 4 -i 11 -a 4 -x {2.0 0.0 4 ------- null}
h -t 1.57192 -s 1 -d 0 -p ack -e 40 -c 4 -i 11 -a 4 -x {2.0 0.0 -1 ------- null}
r -t 1.57608 -s 2 -d 1 -p ack -e 40 -c 4 -i 12 -a 4 -x {2.0 0.0 5 ------- null}
+ -t 1.57608 -s 1 -d 0 -p ack -e 40 -c 4 -i 12 -a 4 -x {2.0 0.0 5 ------- null}
- -t 1.57608 -s 1 -d 0 -p ack -e 40 -c 4 -i 12 -a 4 -x {2.0 0.0 5 ------- null}
h -t 1.57608 -s 1 -d 0 -p ack -e 40 -c 4 -i 12 -a 4 -x {2.0 0.0 -1 ------- null}
r -t 1.58024 -s 2 -d 1 -p ack -e 40 -c 4 -i 13 -a 4 -x {2.0 0.0 6 ------- null}
+ -t 1.58024 -s 1 -d 0 -p ack -e 40 -c 4 -i 13 -a 4 -x {2.0 0.0 6 ------- null}
- -t 1.58024 -s 1 -d 0 -p ack -e 40 -c 4 -i 13 -a 4 -x {2.0 0.0 6 ------- null}
h -t 1.58024 -s 1 -d 0 -p ack -e 40 -c 4 -i 13 -a 4 -x {2.0 0.0 -1 ------- null}
r -t 1.61792 -s 1 -d 0 -p ack -e 40 -c 4 -i 10 -a 4 -x {2.0 0.0 3 ------- null}
+ -t 1.61792 -s 0 -d 1 -p tcp -e 1040 -c 4 -i 14 -a 4 -x {0.0 2.0 7 ------- null}
- -t 1.61792 -s 0 -d 1 -p tcp -e 1040 -c 4 -i 14 -a 4 -x {0.0 2.0 7 ------- null}
h -t 1.61792 -s 0 -d 1 -p tcp -e 1040 -c 4 -i 14 -a 4 -x {0.0 2.0 -1 ------- null}
+ -t 1.61792 -s 0 -d 1 -p tcp -e 1040 -c 4 -i 15 -a 4 -x {0.0 2.0 8 ------- null}
r -t 1.62208 -s 1 -d 0 -p ack -e 40 -c 4 -i 11 -a 4 -x {2.0 0.0 4 ------- null}
+ -t 1.62208 -s 0 -d 1 -p tcp -e 1040 -c 4 -i 16 -a 4 -x {0.0 2.0 9 ------- null}
+ -t 1.62208 -s 0 -d 1 -p tcp -e 1040 -c 4 -i 17 -a 4 -x {0.0 2.0 10 ------- null}
- -t 1.62208 -s 0 -d 1 -p tcp -e 1040 -c 4 -i 15 -a 4 -x {0.0 2.0 8 ------- null}
h -t 1.62208 -s 0 -d 1 -p tcp -e 1040 -c 4 -i 15 -a 4 -x {0.0 2.0 -1 ------- null}
r -t 1.62624 -s 1 -d 0 -p ack -e 40 -c 4 -i 12 -a 4 -x {2.0 0.0 5 ------- null}
+ -t 1.62624 -s 0 -d 1 -p tcp -e 1040 -c 4 -i 18 -a 4 -x {0.0 2.0 11 ------- null}
+ -t 1.62624 -s 0 -d 1 -p tcp -e 1040 -c 4 -i 19 -a 4 -x {0.0 2.0 12 ------- null}
- -t 1.62624 -s 0 -d 1 -p tcp -e 1040 -c 4 -i 16 -a 4 -x {0.0 2.0 9 ------- null}
h -t 1.62624 -s 0 -d 1 -p tcp -e 1040 -c 4 -i 16 -a 4 -x {0.0 2.0 -1 ------- null}
r -t 1.6304 -s 1 -d 0 -p ack -e 40 -c 4 -i 13 -a 4 -x {2.0 0.0 6 ------- null}
+ -t 1.6304 -s 0 -d 1 -p tcp -e 1040 -c 4 -i 20 -a 4 -x {0.0 2.0 13 ------- null}
+ -t 1.6304 -s 0 -d 1 -p tcp -e 1040 -c 4 -i 21 -a 4 -x {0.0 2.0 14 ------- null}
- -t 1.6304 -s 0 -d 1 -p tcp -e 1040 -c 4 -i 17 -a 4 -x {0.0 2.0 10 ------- null}
h -t 1.6304 -s 0 -d 1 -p tcp -e 1040 -c 4 -i 17 -a 4 -x {0.0 2.0 -1 ------- null}
- -t 1.63456 -s 0 -d 1 -p tcp -e 1040 -c 4 -i 18 -a 4 -x {0.0 2.0 11 ------- null}
h -t 1.63456 -s 0 -d 1 -p tcp -e 1040 -c 4 -i 18 -a 4 -x {0.0 2.0 -1 ------- null}
- -t 1.63872 -s 0 -d 1 -p tcp -e 1040 -c 4 -i 19 -a 4 -x {0.0 2.0 12 ------- null}
h -t 1.63872 -s 0 -d 1 -p tcp -e 1040 -c 4 -i 19 -a 4 -x {0.0 2.0 -1 ------- null}
- -t 1.64288 -s 0 -d 1 -p tcp -e 1040 -c 4 -i 20 -a 4 -x {0.0 2.0 13 ------- null}
h -t 1.64288 -s 0 -d 1 -p tcp -e 1040 -c 4 -i 20 -a 4 -x {0.0 2.0 -1 ------- null}
- -t 1.64704 -s 0 -d 1 -p tcp -e 1040 -c 4 -i 21 -a 4 -x {0.0 2.0 14 ------- null}
h -t 1.64704 -s 0 -d 1 -p tcp -e 1040 -c 4 -i 21 -a 4 -x {0.0 2.0 -1 ------- null}
r -t 1.67208 -s 0 -d 1 -p tcp -e 1040 -c 4 -i 14 -a 4 -x {0.0 2.0 7 ------- null}
+ -t 1.67208 -s 1 -d 2 -p tcp -e 1040 -c 4 -i 14 -a 4 -x {0.0 2.0 7 ------- null}
- -t 1.67208 -s 1 -d 2 -p tcp -e 1040 -c 4 -i 14 -a 4 -x {0.0 2.0 7 ------- null}
h -t 1.67208 -s 1 -d 2 -p tcp -e 1040 -c 4 -i 14 -a 4 -x {0.0 2.0 -1 ------- null}
r -t 1.67624 -s 0 -d 1 -p tcp -e 1040 -c 4 -i 15 -a 4 -x {0.0 2.0 8 ------- null}
+ -t 1.67624 -s 1 -d 2 -p tcp -e 1040 -c 4 -i 15 -a 4 -x {0.0 2.0 8 ------- null}
- -t 1.67624 -s 1 -d 2 -p tcp -e 1040 -c 4 -i 15 -a 4 -x {0.0 2.0 8 ------- null}
h -t 1.67624 -s 1 -d 2 -p tcp -e 1040 -c 4 -i 15 -a 4 -x {0.0 2.0 -1 ------- null}
r -t 1.6804 -s 0 -d 1 -p tcp -e 1040 -c 4 -i 16 -a 4 -x {0.0 2.0 9 ------- null}
+ -t 1.6804 -s 1 -d 2 -p tcp -e 1040 -c 4 -i 16 -a 4 -x {0.0 2.0 9 ------- null}
- -t 1.6804 -s 1 -d 2 -p tcp -e 1040 -c 4 -i 16 -a 4 -x {0.0 2.0 9 ------- null}
h -t 1.6804 -s 1 -d 2 -p tcp -e 1040 -c 4 -i 16 -a 4 -x {0.0 2.0 -1 ------- null}
r -t 1.68456 -s 0 -d 1 -p tcp -e 1040 -c 4 -i 17 -a 4 -x {0.0 2.0 10 ------- null}
+ -t 1.68456 -s 1 -d 2 -p tcp -e 1040 -c 4 -i 17 -a 4 -x {0.0 2.0 10 ------- null}
- -t 1.68456 -s 1 -d 2 -p tcp -e 1040 -c 4 -i 17 -a 4 -x {0.0 2.0 10 ------- null}
h -t 1.68456 -s 1 -d 2 -p tcp -e 1040 -c 4 -i 17 -a 4 -x {0.0 2.0 -1 ------- null}
r -t 1.68872 -s 0 -d 1 -p tcp -e 1040 -c 4 -i 18 -a 4 -x {0.0 2.0 11 ------- null}
+ -t 1.68872 -s 1 -d 2 -p tcp -e 1040 -c 4 -i 18 -a 4 -x {0.0 2.0 11 ------- null}
- -t 1.68872 -s 1 -d 2 -p tcp -e 1040 -c 4 -i 18 -a 4 -x {0.0 2.0 11 ------- null}
h -t 1.68872 -s 1 -d 2 -p tcp -e 1040 -c 4 -i 18 -a 4 -x {0.0 2.0 -1 ------- null}
r -t 1.69288 -s 0 -d 1 -p tcp -e 1040 -c 4 -i 19 -a 4 -x {0.0 2.0 12 ------- null}
+ -t 1.69288 -s 1 -d 2 -p tcp -e 1040 -c 4 -i 19 -a 4 -x {0.0 2.0 12 ------- null}
- -t 1.69288 -s 1 -d 2 -p tcp -e 1040 -c 4 -i 19 -a 4 -x {0.0 2.0 12 ------- null}
h -t 1.69288 -s 1 -d 2 -p tcp -e 1040 -c 4 -i 19 -a 4 -x {0.0 2.0 -1 ------- null}
r -t 1.69704 -s 0 -d 1 -p tcp -e 1040 -c 4 -i 20 -a 4 -x {0.0 2.0 13 ------- null}
+ -t 1.69704 -s 1 -d 2 -p tcp -e 1040 -c 4 -i 20 -a 4 -x {0.0 2.0 13 ------- null}
- -t 1.69704 -s 1 -d 2 -p tcp -e 1040 -c 4 -i 20 -a 4 -x {0.0 2.0 13 ------- null}
h -t 1.69704 -s 1 -d 2 -p tcp -e 1040 -c 4 -i 20 -a 4 -x {0.0 2.0 -1 ------- null}
r -t 1.7012 -s 0 -d 1 -p tcp -e 1040 -c 4 -i 21 -a 4 -x {0.0 2.0 14 ------- null}
+ -t 1.7012 -s 1 -d 2 -p tcp -e 1040 -c 4 -i 21 -a 4 -x {0.0 2.0 14 ------- null}
- -t 1.7012 -s 1 -d 2 -p tcp -e 1040 -c 4 -i 21 -a 4 -x {0.0 2.0 14 ------- null}
h -t 1.7012 -s 1 -d 2 -p tcp -e 1040 -c 4 -i 21 -a 4 -x {0.0 2.0 -1 ------- null}
r -t 1.72624 -s 1 -d 2 -p tcp -e 1040 -c 4 -i 14 -a 4 -x {0.0 2.0 7 ------- null}
+ -t 1.72624 -s 2 -d 1 -p ack -e 40 -c 4 -i 22 -a 4 -x {2.0 0.0 7 ------- null}
- -t 1.72624 -s 2 -d 1 -p ack -e 40 -c 4 -i 22 -a 4 -x {2.0 0.0 7 ------- null}
h -t 1.72624 -s 2 -d 1 -p ack -e 40 -c 4 -i 22 -a 4 -x {2.0 0.0 -1 ------- null}
r -t 1.7304 -s 1 -d 2 -p tcp -e 1040 -c 4 -i 15 -a 4 -x {0.0 2.0 8 ------- null}
+ -t 1.7304 -s 2 -d 1 -p ack -e 40 -c 4 -i 23 -a 4 -x {2.0 0.0 8 ------- null}
- -t 1.7304 -s 2 -d 1 -p ack -e 40 -c 4 -i 23 -a 4 -x {2.0 0.0 8 ------- null}
h -t 1.7304 -s 2 -d 1 -p ack -e 40 -c 4 -i 23 -a 4 -x {2.0 0.0 -1 ------- null}
r -t 1.73456 -s 1 -d 2 -p tcp -e 1040 -c 4 -i 16 -a 4 -x {0.0 2.0 9 ------- null}
+ -t 1.73456 -s 2 -d 1 -p ack -e 40 -c 4 -i 24 -a 4 -x {2.0 0.0 9 ------- null}
- -t 1.73456 -s 2 -d 1 -p ack -e 40 -c 4 -i 24 -a 4 -x {2.0 0.0 9 ------- null}
h -t 1.73456 -s 2 -d 1 -p ack -e 40 -c 4 -i 24 -a 4 -x {2.0 0.0 -1 ------- null}
r -t 1.73872 -s 1 -d 2 -p tcp -e 1040 -c 4 -i 17 -a 4 -x {0.0 2.0 10 ------- null}
+ -t 1.73872 -s 2 -d 1 -p ack -e 40 -c 4 -i 25 -a 4 -x {2.0 0.0 10 ------- null}
- -t 1.73872 -s 2 -d 1 -p ack -e 40 -c 4 -i 25 -a 4 -x {2.0 0.0 10 ------- null}
h -t 1.73872 -s 2 -d 1 -p ack -e 40 -c 4 -i 25 -a 4 -x {2.0 0.0 -1 ------- null}
r -t 1.74288 -s 1 -d 2 -p tcp -e 1040 -c 4 -i 18 -a 4 -x {0.0 2.0 11 ------- null}
+ -t 1.74288 -s 2 -d 1 -p ack -e 40 -c 4 -i 26 -a 4 -x {2.0 0.0 11 ------- null}
- -t 1.74288 -s 2 -d 1 -p ack -e 40 -c 4 -i 26 -a 4 -x {2.0 0.0 11 ------- null}
h -t 1.74288 -s 2 -d 1 -p ack -e 40 -c 4 -i 26 -a 4 -x {2.0 0.0 -1 ------- null}
r -t 1.74704 -s 1 -d 2 -p tcp -e 1040 -c 4 -i 19 -a 4 -x {0.0 2.0 12 ------- null}
+ -t 1.74704 -s 2 -d 1 -p ack -e 40 -c 4 -i 27 -a 4 -x {2.0 0.0 12 ------- null}
- -t 1.74704 -s 2 -d 1 -p ack -e 40 -c 4 -i 27 -a 4 -x {2.0 0.0 12 ------- null}
h -t 1.74704 -s 2 -d 1 -p ack -e 40 -c 4 -i 27 -a 4 -x {2.0 0.0 -1 ------- null}
r -t 1.7512 -s 1 -d 2 -p tcp -e 1040 -c 4 -i 20 -a 4 -x {0.0 2.0 13 ------- null}
+ -t 1.7512 -s 2 -d 1 -p ack -e 40 -c 4 -i 28 -a 4 -x {2.0 0.0 13 ------- null}
- -t 1.7512 -s 2 -d 1 -p ack -e 40 -c 4 -i 28 -a 4 -x {2.0 0.0 13 ------- null}
h -t 1.7512 -s 2 -d 1 -p ack -e 40 -c 4 -i 28 -a 4 -x {2.0 0.0 -1 ------- null}
r -t 1.75536 -s 1 -d 2 -p tcp -e 1040 -c 4 -i 21 -a 4 -x {0.0 2.0 14 ------- null}
+ -t 1.75536 -s 2 -d 1 -p ack -e 40 -c 4 -i 29 -a 4 -x {2.0 0.0 14 ------- null}
- -t 1.75536 -s 2 -d 1 -p ack -e 40 -c 4 -i 29 -a 4 -x {2.0 0.0 14 ------- null}
h -t 1.75536 -s 2 -d 1 -p ack -e 40 -c 4 -i 29 -a 4 -x {2.0 0.0 -1 ------- null}
r -t 1.7764 -s 2 -d 1 -p ack -e 40 -c 4 -i 22 -a 4 -x {2.0 0.0 7 ------- null}
+ -t 1.7764 -s 1 -d 0 -p ack -e 40 -c 4 -i 22 -a 4 -x {2.0 0.0 7 ------- null}
- -t 1.7764 -s 1 -d 0 -p ack -e 40 -c 4 -i 22 -a 4 -x {2.0 0.0 7 ------- null}
h -t 1.7764 -s 1 -d 0 -p ack -e 40 -c 4 -i 22 -a 4 -x {2.0 0.0 -1 ------- null}
r -t 1.78056 -s 2 -d 1 -p ack -e 40 -c 4 -i 23 -a 4 -x {2.0 0.0 8 ------- null}
+ -t 1.78056 -s 1 -d 0 -p ack -e 40 -c 4 -i 23 -a 4 -x {2.0 0.0 8 ------- null}
- -t 1.78056 -s 1 -d 0 -p ack -e 40 -c 4 -i 23 -a 4 -x {2.0 0.0 8 ------- null}
h -t 1.78056 -s 1 -d 0 -p ack -e 40 -c 4 -i 23 -a 4 -x {2.0 0.0 -1 ------- null}
r -t 1.78472 -s 2 -d 1 -p ack -e 40 -c 4 -i 24 -a 4 -x {2.0 0.0 9 ------- null}
+ -t 1.78472 -s 1 -d 0 -p ack -e 40 -c 4 -i 24 -a 4 -x {2.0 0.0 9 ------- null}
- -t 1.78472 -s 1 -d 0 -p ack -e 40 -c 4 -i 24 -a 4 -x {2.0 0.0 9 ------- null}
h -t 1.78472 -s 1 -d 0 -p ack -e 40 -c 4 -i 24 -a 4 -x {2.0 0.0 -1 ------- null}
r -t 1.78888 -s 2 -d 1 -p ack -e 40 -c 4 -i 25 -a 4 -x {2.0 0.0 10 ------- null}
+ -t 1.78888 -s 1 -d 0 -p ack -e 40 -c 4 -i 25 -a 4 -x {2.0 0.0 10 ------- null}
- -t 1.78888 -s 1 -d 0 -p ack -e 40 -c 4 -i 25 -a 4 -x {2.0 0.0 10 ------- null}
h -t 1.78888 -s 1 -d 0 -p ack -e 40 -c 4 -i 25 -a 4 -x {2.0 0.0 -1 ------- null}
r -t 1.79304 -s 2 -d 1 -p ack -e 40 -c 4 -i 26 -a 4 -x {2.0 0.0 11 ------- null}
+ -t 1.79304 -s 1 -d 0 -p ack -e 40 -c 4 -i 26 -a 4 -x {2.0 0.0 11 ------- null}
- -t 1.79304 -s 1 -d 0 -p ack -e 40 -c 4 -i 26 -a 4 -x {2.0 0.0 11 ------- null}
h -t 1.79304 -s 1 -d 0 -p ack -e 40 -c 4 -i 26 -a 4 -x {2.0 0.0 -1 ------- null}
r -t 1.7972 -s 2 -d 1 -p ack -e 40 -c 4 -i 27 -a 4 -x {2.0 0.0 12 ------- null}
+ -t 1.7972 -s 1 -d 0 -p ack -e 40 -c 4 -i 27 -a 4 -x {2.0 0.0 12 ------- null}
- -t 1.7972 -s 1 -d 0 -p ack -e 40 -c 4 -i 27 -a 4 -x {2.0 0.0 12 ------- null}
h -t 1.7972 -s 1 -d 0 -p ack -e 40 -c 4 -i 27 -a 4 -x {2.0 0.0 -1 ------- null}
r -t 1.80136 -s 2 -d 1 -p ack -e 40 -c 4 -i 28 -a 4 -x {2.0 0.0 13 ------- null}
+ -t 1.80136 -s 1 -d 0 -p ack -e 40 -c 4 -i 28 -a 4 -x {2.0 0.0 13 ------- null}
- -t 1.80136 -s 1 -d 0 -p ack -e 40 -c 4 -i 28 -a 4 -x {2.0 0.0 13 ------- null}
h -t 1.80136 -s 1 -d 0 -p ack -e 40 -c 4 -i 28 -a 4 -x {2.0 0.0 -1 ------- null}
r -t 1.80552 -s 2 -d 1 -p ack -e 40 -c 4 -i 29 -a 4 -x {2.0 0.0 14 ------- null}
+ -t 1.80552 -s 1 -d 0 -p ack -e 40 -c 4 -i 29 -a 4 -x {2.0 0.0 14 ------- null}
- -t 1.80552 -s 1 -d 0 -p ack -e 40 -c 4 -i 29 -a 4 -x {2.0 0.0 14 ------- null}
h -t 1.80552 -s 1 -d 0 -p ack -e 40 -c 4 -i 29 -a 4 -x {2.0 0.0 -1 ------- null}
r -t 1.82656 -s 1 -d 0 -p ack -e 40 -c 4 -i 22 -a 4 -x {2.0 0.0 7 ------- null}
+ -t 1.82656 -s 0 -d 1 -p tcp -e 1040 -c 4 -i 30 -a 4 -x {0.0 2.0 15 ------- null}
- -t 1.82656 -s 0 -d 1 -p tcp -e 1040 -c 4 -i 30 -a 4 -x {0.0 2.0 15 ------- null}
h -t 1.82656 -s 0 -d 1 -p tcp -e 1040 -c 4 -i 30 -a 4 -x {0.0 2.0 -1 ------- null}
+ -t 1.82656 -s 0 -d 1 -p tcp -e 1040 -c 4 -i 31 -a 4 -x {0.0 2.0 16 ------- null}
r -t 1.83072 -s 1 -d 0 -p ack -e 40 -c 4 -i 23 -a 4 -x {2.0 0.0 8 ------- null}
+ -t 1.83072 -s 0 -d 1 -p tcp -e 1040 -c 4 -i 32 -a 4 -x {0.0 2.0 17 ------- null}
+ -t 1.83072 -s 0 -d 1 -p tcp -e 1040 -c 4 -i 33 -a 4 -x {0.0 2.0 18 ------- null}
- -t 1.83072 -s 0 -d 1 -p tcp -e 1040 -c 4 -i 31 -a 4 -x {0.0 2.0 16 ------- null}
h -t 1.83072 -s 0 -d 1 -p tcp -e 1040 -c 4 -i 31 -a 4 -x {0.0 2.0 -1 ------- null}
r -t 1.83488 -s 1 -d 0 -p ack -e 40 -c 4 -i 24 -a 4 -x {2.0 0.0 9 ------- null}
+ -t 1.83488 -s 0 -d 1 -p tcp -e 1040 -c 4 -i 34 -a 4 -x {0.0 2.0 19 ------- null}
+ -t 1.83488 -s 0 -d 1 -p tcp -e 1040 -c 4 -i 35 -a 4 -x {0.0 2.0 20 ------- null}
- -t 1.83488 -s 0 -d 1 -p tcp -e 1040 -c 4 -i 32 -a 4 -x {0.0 2.0 17 ------- null}
h -t 1.83488 -s 0 -d 1 -p tcp -e 1040 -c 4 -i 32 -a 4 -x {0.0 2.0 -1 ------- null}
r -t 1.83904 -s 1 -d 0 -p ack -e 40 -c 4 -i 25 -a 4 -x {2.0 0.0 10 ------- null}
+ -t 1.83904 -s 0 -d 1 -p tcp -e 1040 -c 4 -i 36 -a 4 -x {0.0 2.0 21 ------- null}
+ -t 1.83904 -s 0 -d 1 -p tcp -e 1040 -c 4 -i 37 -a 4 -x {0.0 2.0 22 ------- null}
- -t 1.83904 -s 0 -d 1 -p tcp -e 1040 -c 4 -i 33 -a 4 -x {0.0 2.0 18 ------- null}
h -t 1.83904 -s 0 -d 1 -p tcp -e 1040 -c 4 -i 33 -a 4 -x {0.0 2.0 -1 ------- null}
r -t 1.8432 -s 1 -d 0 -p ack -e 40 -c 4 -i 26 -a 4 -x {2.0 0.0 11 ------- null}
+ -t 1.8432 -s 0 -d 1 -p tcp -e 1040 -c 4 -i 38 -a 4 -x {0.0 2.0 23 ------- null}
+ -t 1.8432 -s 0 -d 1 -p tcp -e 1040 -c 4 -i 39 -a 4 -x {0.0 2.0 24 ------- null}
- -t 1.8432 -s 0 -d 1 -p tcp -e 1040 -c 4 -i 34 -a 4 -x {0.0 2.0 19 ------- null}
h -t 1.8432 -s 0 -d 1 -p tcp -e 1040 -c 4 -i 34 -a 4 -x {0.0 2.0 -1 ------- null}
r -t 1.84736 -s 1 -d 0 -p ack -e 40 -c 4 -i 27 -a 4 -x {2.0 0.0 12 ------- null}
+ -t 1.84736 -s 0 -d 1 -p tcp -e 1040 -c 4 -i 40 -a 4 -x {0.0 2.0 25 ------- null}
+ -t 1.84736 -s 0 -d 1 -p tcp -e 1040 -c 4 -i 41 -a 4 -x {0.0 2.0 26 ------- null}
- -t 1.84736 -s 0 -d 1 -p tcp -e 1040 -c 4 -i 35 -a 4 -x {0.0 2.0 20 ------- null}
h -t 1.84736 -s 0 -d 1 -p tcp -e 1040 -c 4 -i 35 -a 4 -x {0.0 2.0 -1 ------- null}
r -t 1.85152 -s 1 -d 0 -p ack -e 40 -c 4 -i 28 -a 4 -x {2.0 0.0 13 ------- null}
+ -t 1.85152 -s 0 -d 1 -p tcp -e 1040 -c 4 -i 42 -a 4 -x {0.0 2.0 27 ------- null}
+ -t 1.85152 -s 0 -d 1 -p tcp -e 1040 -c 4 -i 43 -a 4 -x {0.0 2.0 28 ------- null}
- -t 1.85152 -s 0 -d 1 -p tcp -e 1040 -c 4 -i 36 -a 4 -x {0.0 2.0 21 ------- null}
h -t 1.85152 -s 0 -d 1 -p tcp -e 1040 -c 4 -i 36 -a 4 -x {0.0 2.0 -1 ------- null}
r -t 1.85568 -s 1 -d 0 -p ack -e 40 -c 4 -i 29 -a 4 -x {2.0 0.0 14 ------- null}
+ -t 1.85568 -s 0 -d 1 -p tcp -e 1040 -c 4 -i 44 -a 4 -x {0.0 2.0 29 ------- null}
+ -t 1.85568 -s 0 -d 1 -p tcp -e 1040 -c 4 -i 45 -a 4 -x {0.0 2.0 30 ------- null}
- -t 1.85568 -s 0 -d 1 -p tcp -e 1040 -c 4 -i 37 -a 4 -x {0.0 2.0 22 ------- null}
h -t 1.85568 -s 0 -d 1 -p tcp -e 1040 -c 4 -i 37 -a 4 -x {0.0 2.0 -1 ------- null}
- -t 1.85984 -s 0 -d 1 -p tcp -e 1040 -c 4 -i 38 -a 4 -x {0.0 2.0 23 ------- null}
h -t 1.85984 -s 0 -d 1 -p tcp -e 1040 -c 4 -i 38 -a 4 -x {0.0 2.0 -1 ------- null}
- -t 1.864 -s 0 -d 1 -p tcp -e 1040 -c 4 -i 39 -a 4 -x {0.0 2.0 24 ------- null}
h -t 1.864 -s 0 -d 1 -p tcp -e 1040 -c 4 -i 39 -a 4 -x {0.0 2.0 -1 ------- null}
- -t 1.86816 -s 0 -d 1 -p tcp -e 1040 -c 4 -i 40 -a 4 -x {0.0 2.0 25 ------- null}
h -t 1.86816 -s 0 -d 1 -p tcp -e 1040 -c 4 -i 40 -a 4 -x {0.0 2.0 -1 ------- null}
- -t 1.87232 -s 0 -d 1 -p tcp -e 1040 -c 4 -i 41 -a 4 -x {0.0 2.0 26 ------- null}
h -t 1.87232 -s 0 -d 1 -p tcp -e 1040 -c 4 -i 41 -a 4 -x {0.0 2.0 -1 ------- null}
- -t 1.87648 -s 0 -d 1 -p tcp -e 1040 -c 4 -i 42 -a 4 -x {0.0 2.0 27 ------- null}
h -t 1.87648 -s 0 -d 1 -p tcp -e 1040 -c 4 -i 42 -a 4 -x {0.0 2.0 -1 ------- null}
- -t 1.88064 -s 0 -d 1 -p tcp -e 1040 -c 4 -i 43 -a 4 -x {0.0 2.0 28 ------- null}
h -t 1.88064 -s 0 -d 1 -p tcp -e 1040 -c 4 -i 43 -a 4 -x {0.0 2.0 -1 ------- null}
r -t 1.88072 -s 0 -d 1 -p tcp -e 1040 -c 4 -i 30 -a 4 -x {0.0 2.0 15 ------- null}
+ -t 1.88072 -s 1 -d 2 -p tcp -e 1040 -c 4 -i 30 -a 4 -x {0.0 2.0 15 ------- null}
- -t 1.88072 -s 1 -d 2 -p tcp -e 1040 -c 4 -i 30 -a 4 -x {0.0 2.0 15 ------- null}
h -t 1.88072 -s 1 -d 2 -p tcp -e 1040 -c 4 -i 30 -a 4 -x {0.0 2.0 -1 ------- null}
- -t 1.8848 -s 0 -d 1 -p tcp -e 1040 -c 4 -i 44 -a 4 -x {0.0 2.0 29 ------- null}
h -t 1.8848 -s 0 -d 1 -p tcp -e 1040 -c 4 -i 44 -a 4 -x {0.0 2.0 -1 ------- null}
r -t 1.88488 -s 0 -d 1 -p tcp -e 1040 -c 4 -i 31 -a 4 -x {0.0 2.0 16 ------- null}
+ -t 1.88488 -s 1 -d 2 -p tcp -e 1040 -c 4 -i 31 -a 4 -x {0.0 2.0 16 ------- null}
- -t 1.88488 -s 1 -d 2 -p tcp -e 1040 -c 4 -i 31 -a 4 -x {0.0 2.0 16 ------- null}
h -t 1.88488 -s 1 -d 2 -p tcp -e 1040 -c 4 -i 31 -a 4 -x {0.0 2.0 -1 ------- null}
- -t 1.88896 -s 0 -d 1 -p tcp -e 1040 -c 4 -i 45 -a 4 -x {0.0 2.0 30 ------- null}
h -t 1.88896 -s 0 -d 1 -p tcp -e 1040 -c 4 -i 45 -a 4 -x {0.0 2.0 -1 ------- null}
r -t 1.88904 -s 0 -d 1 -p tcp -e 1040 -c 4 -i 32 -a 4 -x {0.0 2.0 17 ------- null}
+ -t 1.88904 -s 1 -d 2 -p tcp -e 1040 -c 4 -i 32 -a 4 -x {0.0 2.0 17 ------- null}
- -t 1.88904 -s 1 -d 2 -p tcp -e 1040 -c 4 -i 32 -a 4 -x {0.0 2.0 17 ------- null}
h -t 1.88904 -s 1 -d 2 -p tcp -e 1040 -c 4 -i 32 -a 4 -x {0.0 2.0 -1 ------- null}
r -t 1.8932 -s 0 -d 1 -p tcp -e 1040 -c 4 -i 33 -a 4 -x {0.0 2.0 18 ------- null}
+ -t 1.8932 -s 1 -d 2 -p tcp -e 1040 -c 4 -i 33 -a 4 -x {0.0 2.0 18 ------- null}
- -t 1.8932 -s 1 -d 2 -p tcp -e 1040 -c 4 -i 33 -a 4 -x {0.0 2.0 18 ------- null}
h -t 1.8932 -s 1 -d 2 -p tcp -e 1040 -c 4 -i 33 -a 4 -x {0.0 2.0 -1 ------- null}
r -t 1.89736 -s 0 -d 1 -p tcp -e 1040 -c 4 -i 34 -a 4 -x {0.0 2.0 19 ------- null}
+ -t 1.89736 -s 1 -d 2 -p tcp -e 1040 -c 4 -i 34 -a 4 -x {0.0 2.0 19 ------- null}
- -t 1.89736 -s 1 -d 2 -p tcp -e 1040 -c 4 -i 34 -a 4 -x {0.0 2.0 19 ------- null}
h -t 1.89736 -s 1 -d 2 -p tcp -e 1040 -c 4 -i 34 -a 4 -x {0.0 2.0 -1 ------- null}
r -t 1.90152 -s 0 -d 1 -p tcp -e 1040 -c 4 -i 35 -a 4 -x {0.0 2.0 20 ------- null}
+ -t 1.90152 -s 1 -d 2 -p tcp -e 1040 -c 4 -i 35 -a 4 -x {0.0 2.0 20 ------- null}
- -t 1.90152 -s 1 -d 2 -p tcp -e 1040 -c 4 -i 35 -a 4 -x {0.0 2.0 20 ------- null}
h -t 1.90152 -s 1 -d 2 -p tcp -e 1040 -c 4 -i 35 -a 4 -x {0.0 2.0 -1 ------- null}
r -t 1.90568 -s 0 -d 1 -p tcp -e 1040 -c 4 -i 36 -a 4 -x {0.0 2.0 21 ------- null}
+ -t 1.90568 -s 1 -d 2 -p tcp -e 1040 -c 4 -i 36 -a 4 -x {0.0 2.0 21 ------- null}
- -t 1.90568 -s 1 -d 2 -p tcp -e 1040 -c 4 -i 36 -a 4 -x {0.0 2.0 21 ------- null}
h -t 1.90568 -s 1 -d 2 -p tcp -e 1040 -c 4 -i 36 -a 4 -x {0.0 2.0 -1 ------- null}
r -t 1.90984 -s 0 -d 1 -p tcp -e 1040 -c 4 -i 37 -a 4 -x {0.0 2.0 22 ------- null}
+ -t 1.90984 -s 1 -d 2 -p tcp -e 1040 -c 4 -i 37 -a 4 -x {0.0 2.0 22 ------- null}
- -t 1.90984 -s 1 -d 2 -p tcp -e 1040 -c 4 -i 37 -a 4 -x {0.0 2.0 22 ------- null}
h -t 1.90984 -s 1 -d 2 -p tcp -e 1040 -c 4 -i 37 -a 4 -x {0.0 2.0 -1 ------- null}
r -t 1.914 -s 0 -d 1 -p tcp -e 1040 -c 4 -i 38 -a 4 -x {0.0 2.0 23 ------- null}
+ -t 1.914 -s 1 -d 2 -p tcp -e 1040 -c 4 -i 38 -a 4 -x {0.0 2.0 23 ------- null}
- -t 1.914 -s 1 -d 2 -p tcp -e 1040 -c 4 -i 38 -a 4 -x {0.0 2.0 23 ------- null}
h -t 1.914 -s 1 -d 2 -p tcp -e 1040 -c 4 -i 38 -a 4 -x {0.0 2.0 -1 ------- null}
r -t 1.91816 -s 0 -d 1 -p tcp -e 1040 -c 4 -i 39 -a 4 -x {0.0 2.0 24 ------- null}
+ -t 1.91816 -s 1 -d 2 -p tcp -e 1040 -c 4 -i 39 -a 4 -x {0.0 2.0 24 ------- null}
- -t 1.91816 -s 1 -d 2 -p tcp -e 1040 -c 4 -i 39 -a 4 -x {0.0 2.0 24 ------- null}
h -t 1.91816 -s 1 -d 2 -p tcp -e 1040 -c 4 -i 39 -a 4 -x {0.0 2.0 -1 ------- null}
r -t 1.92232 -s 0 -d 1 -p tcp -e 1040 -c 4 -i 40 -a 4 -x {0.0 2.0 25 ------- null}
+ -t 1.92232 -s 1 -d 2 -p tcp -e 1040 -c 4 -i 40 -a 4 -x {0.0 2.0 25 ------- null}
- -t 1.92232 -s 1 -d 2 -p tcp -e 1040 -c 4 -i 40 -a 4 -x {0.0 2.0 25 ------- null}
h -t 1.92232 -s 1 -d 2 -p tcp -e 1040 -c 4 -i 40 -a 4 -x {0.0 2.0 -1 ------- null}
r -t 1.92648 -s 0 -d 1 -p tcp -e 1040 -c 4 -i 41 -a 4 -x {0.0 2.0 26 ------- null}
+ -t 1.92648 -s 1 -d 2 -p tcp -e 1040 -c 4 -i 41 -a 4 -x {0.0 2.0 26 ------- null}
- -t 1.92648 -s 1 -d 2 -p tcp -e 1040 -c 4 -i 41 -a 4 -x {0.0 2.0 26 ------- null}
h -t 1.92648 -s 1 -d 2 -p tcp -e 1040 -c 4 -i 41 -a 4 -x {0.0 2.0 -1 ------- null}
r -t 1.93064 -s 0 -d 1 -p tcp -e 1040 -c 4 -i 42 -a 4 -x {0.0 2.0 27 ------- null}
+ -t 1.93064 -s 1 -d 2 -p tcp -e 1040 -c 4 -i 42 -a 4 -x {0.0 2.0 27 ------- null}
- -t 1.93064 -s 1 -d 2 -p tcp -e 1040 -c 4 -i 42 -a 4 -x {0.0 2.0 27 ------- null}
h -t 1.93064 -s 1 -d 2 -p tcp -e 1040 -c 4 -i 42 -a 4 -x {0.0 2.0 -1 ------- null}
r -t 1.9348 -s 0 -d 1 -p tcp -e 1040 -c 4 -i 43 -a 4 -x {0.0 2.0 28 ------- null}
+ -t 1.9348 -s 1 -d 2 -p tcp -e 1040 -c 4 -i 43 -a 4 -x {0.0 2.0 28 ------- null}
- -t 1.9348 -s 1 -d 2 -p tcp -e 1040 -c 4 -i 43 -a 4 -x {0.0 2.0 28 ------- null}
h -t 1.9348 -s 1 -d 2 -p tcp -e 1040 -c 4 -i 43 -a 4 -x {0.0 2.0 -1 ------- null}
r -t 1.93488 -s 1 -d 2 -p tcp -e 1040 -c 4 -i 30 -a 4 -x {0.0 2.0 15 ------- null}
+ -t 1.93488 -s 2 -d 1 -p ack -e 40 -c 4 -i 46 -a 4 -x {2.0 0.0 15 ------- null}
- -t 1.93488 -s 2 -d 1 -p ack -e 40 -c 4 -i 46 -a 4 -x {2.0 0.0 15 ------- null}
h -t 1.93488 -s 2 -d 1 -p ack -e 40 -c 4 -i 46 -a 4 -x {2.0 0.0 -1 ------- null}
r -t 1.93896 -s 0 -d 1 -p tcp -e 1040 -c 4 -i 44 -a 4 -x {0.0 2.0 29 ------- null}
+ -t 1.93896 -s 1 -d 2 -p tcp -e 1040 -c 4 -i 44 -a 4 -x {0.0 2.0 29 ------- null}
- -t 1.93896 -s 1 -d 2 -p tcp -e 1040 -c 4 -i 44 -a 4 -x {0.0 2.0 29 ------- null}
h -t 1.93896 -s 1 -d 2 -p tcp -e 1040 -c 4 -i 44 -a 4 -x {0.0 2.0 -1 ------- null}
r -t 1.93904 -s 1 -d 2 -p tcp -e 1040 -c 4 -i 31 -a 4 -x {0.0 2.0 16 ------- null}
+ -t 1.93904 -s 2 -d 1 -p ack -e 40 -c 4 -i 47 -a 4 -x {2.0 0.0 16 ------- null}
- -t 1.93904 -s 2 -d 1 -p ack -e 40 -c 4 -i 47 -a 4 -x {2.0 0.0 16 ------- null}
h -t 1.93904 -s 2 -d 1 -p ack -e 40 -c 4 -i 47 -a 4 -x {2.0 0.0 -1 ------- null}
r -t 1.94312 -s 0 -d 1 -p tcp -e 1040 -c 4 -i 45 -a 4 -x {0.0 2.0 30 ------- null}
+ -t 1.94312 -s 1 -d 2 -p tcp -e 1040 -c 4 -i 45 -a 4 -x {0.0 2.0 30 ------- null}
- -t 1.94312 -s 1 -d 2 -p tcp -e 1040 -c 4 -i 45 -a 4 -x {0.0 2.0 30 ------- null}